 Entering Gaussian System, Link 0=g16
 Initial command:
 /opt/g16/l1.exe "/home/jh-li/scratch/g16/Gau-48097.inp" -scrdir="/home/jh-li/scratch/g16/"
 Entering Link 1 = /opt/g16/l1.exe PID=     48116.
  
 Copyright (c) 1988-2019, Gaussian, Inc.  All Rights Reserved.
  
 This is part of the Gaussian(R) 16 program.  It is based on
 the Gaussian(R) 09 system (copyright 2009, Gaussian, Inc.),
 the Gaussian(R) 03 system (copyright 2003, Gaussian, Inc.),
 the Gaussian(R) 98 system (copyright 1998, Gaussian, Inc.),
 the Gaussian(R) 94 system (copyright 1995, Gaussian, Inc.),
 the Gaussian 92(TM) system (copyright 1992, Gaussian, Inc.),
 the Gaussian 90(TM) system (copyright 1990, Gaussian, Inc.),
 the Gaussian 88(TM) system (copyright 1988, Gaussian, Inc.),
 the Gaussian 86(TM) system (copyright 1986, Carnegie Mellon
 University), and the Gaussian 82(TM) system (copyright 1983,
 Carnegie Mellon University). Gaussian is a federally registered
 trademark of Gaussian, Inc.
  
 This software contains proprietary and confidential information,
 including trade secrets, belonging to Gaussian, Inc.
  
 This software is provided under written license and may be
 used, copied, transmitted, or stored only in accord with that
 written license.
  
 The following legend is applicable only to US Government
 contracts under FAR:
  
                    RESTRICTED RIGHTS LEGEND
  
 Use, reproduction and disclosure by the US Government is
 subject to restrictions as set forth in subparagraphs (a)
 and (c) of the Commercial Computer Software - Restricted
 Rights clause in FAR 52.227-19.
  
 Gaussian, Inc.
 340 Quinnipiac St., Bldg. 40, Wallingford CT 06492
  
  
 ---------------------------------------------------------------
 Warning -- This program may not be used in any manner that
 competes with the business of Gaussian, Inc. or will provide
 assistance to any competitor of Gaussian, Inc.  The licensee
 of this program is prohibited from giving any competitor of
 Gaussian, Inc. access to this program.  By using this program,
 the user acknowledges that Gaussian, Inc. is engaged in the
 business of creating and licensing software in the field of
 computational chemistry and represents and warrants to the
 licensee that it is not a competitor of Gaussian, Inc. and that
 it will not use this program in any manner prohibited above.
 ---------------------------------------------------------------
  

 Cite this work as:
 Gaussian 16, Revision C.01,
 M. J. Frisch, G. W. Trucks, H. B. Schlegel, G. E. Scuseria, 
 M. A. Robb, J. R. Cheeseman, G. Scalmani, V. Barone, 
 G. A. Petersson, H. Nakatsuji, X. Li, M. Caricato, A. V. Marenich, 
 J. Bloino, B. G. Janesko, R. Gomperts, B. Mennucci, H. P. Hratchian, 
 J. V. Ortiz, A. F. Izmaylov, J. L. Sonnenberg, D. Williams-Young, 
 F. Ding, F. Lipparini, F. Egidi, J. Goings, B. Peng, A. Petrone, 
 T. Henderson, D. Ranasinghe, V. G. Zakrzewski, J. Gao, N. Rega, 
 G. Zheng, W. Liang, M. Hada, M. Ehara, K. Toyota, R. Fukuda, 
 J. Hasegawa, M. Ishida, T. Nakajima, Y. Honda, O. Kitao, H. Nakai, 
 T. Vreven, K. Throssell, J. A. Montgomery, Jr., J. E. Peralta, 
 F. Ogliaro, M. J. Bearpark, J. J. Heyd, E. N. Brothers, K. N. Kudin, 
 V. N. Staroverov, T. A. Keith, R. Kobayashi, J. Normand, 
 K. Raghavachari, A. P. Rendell, J. C. Burant, S. S. Iyengar, 
 J. Tomasi, M. Cossi, J. M. Millam, M. Klene, C. Adamo, R. Cammi, 
 J. W. Ochterski, R. L. Martin, K. Morokuma, O. Farkas, 
 J. B. Foresman, and D. J. Fox, Gaussian, Inc., Wallingford CT, 2019.
 
 ******************************************
 Gaussian 16:  ES64L-G16RevC.01  3-Jul-2019
                 9-Jan-2024 
 ******************************************
 %nproc=1
 Will use up to    1 processors via shared memory.
 %chk=HCN-ts-opt-freq.chk
 --------------------------------------------------
 #p external="python3 -u ../../src/gmm.py" freq=num
 --------------------------------------------------
 1/10=4,18=10,30=1,38=11/1,6,3;
 2/12=2,17=6,18=5,40=1/2;
 3/11=9,25=1,30=1,41=9900000,43=2,71=1/1;
 4/20=17,22=1,24=3,113=1,114=1/2;
 6/7=2,8=2,9=2,10=2/1;
 7/44=-1/16;
 1/10=4,18=10,30=1,38=10/6(3);
 7/8=1,25=1,44=-1/16;
 1/10=4,18=10,30=1,38=10/3;
 99//99;
 3/11=9,25=1,30=1,41=9900000,43=2,71=1/1;
 4/16=2,20=17,22=1,24=3,113=1,114=1/2;
 6/7=2,8=2,9=2,10=2/1;
 7/7=1,44=-1/16;
 1/10=4,18=10,30=1,38=10/6(-4);
 7/8=1,25=1,44=-1/16;
 1/10=4,18=10,30=1,38=10/3;
 99//99;
 Leave Link    1 at Tue Jan  9 18:13:05 2024, MaxMem=           0 cpu:               0.0 elap:               0.0
 (Enter /opt/g16/l101.exe)
 -------------------
 Title Card Required
 -------------------
 Symbolic Z-matrix:
 Charge =  0 Multiplicity = 1
 C                     0.56314  -0.57635   0. 
 N                    -0.3752    0.35695   0. 
 H                    -0.79524  -1.09345   0. 
 
 ITRead=  0  0  0
 MicOpt= -1 -1 -1
 NAtoms=      3 NQM=        3 NQMF=       0 NMMI=      0 NMMIF=      0
                NMic=       0 NMicF=      0.
                    Isotopes and Nuclear Properties:
 (Nuclear quadrupole moments (NQMom) in fm**2, nuclear magnetic moments (NMagM)
  in nuclear magnetons)

  Atom         1           2           3
 IAtWgt=          12          14           1
 AtmWgt=  12.0000000  14.0030740   1.0078250
 NucSpn=           0           2           1
 AtZEff=  -0.0000000  -0.0000000  -0.0000000
 NQMom=    0.0000000   2.0440000   0.0000000
 NMagM=    0.0000000   0.4037610   2.7928460
 AtZNuc=   6.0000000   7.0000000   1.0000000
 Leave Link  101 at Tue Jan  9 18:13:05 2024, MaxMem=   104857600 cpu:               0.1 elap:               0.1
 (Enter /opt/g16/l106.exe)
 Numerical evaluation of force-constants.
 Nuclear step= 0.001000 Angstroms, electric field step= 0.000333 atomic units, NStep=1.
 Leave Link  106 at Tue Jan  9 18:13:05 2024, MaxMem=   104857600 cpu:               0.0 elap:               0.0
 (Enter /opt/g16/l103.exe)

 GradGradGradGradGradGradGradGradGradGradGradGradGradGradGradGradGradGrad
 Berny optimization.
 Initialization pass.
 Trust Radius=3.00D-01 FncErr=1.00D-07 GrdErr=1.00D-07 EigMax=2.50D+02 EigMin=1.00D-04
 Number of steps in this run=      2 maximum allowed number of steps=      2.
 GradGradGradGradGradGradGradGradGradGradGradGradGradGradGradGradGradGrad

 Leave Link  103 at Tue Jan  9 18:13:05 2024, MaxMem=   104857600 cpu:               0.0 elap:               0.0
 (Enter /opt/g16/l202.exe)
                          Input orientation:                          
 ---------------------------------------------------------------------
 Center     Atomic      Atomic             Coordinates (Angstroms)
 Number     Number       Type             X           Y           Z
 ---------------------------------------------------------------------
      1          6           0        0.563142   -0.576354    0.000000
      2          7           0       -0.375200    0.356947    0.000000
      3          1           0       -0.795242   -1.093454    0.000000
 ---------------------------------------------------------------------
                    Distance matrix (angstroms):
                    1          2          3
     1  C    0.000000
     2  N    1.323457   0.000000
     3  H    1.453479   1.510000   0.000000
 Stoichiometry    CHN
 Framework group  CS[SG(CHN)]
 Deg. of freedom     3
 Full point group                 CS      NOp   2
 Largest Abelian subgroup         CS      NOp   2
 Largest concise Abelian subgroup C1      NOp   1
                         Standard orientation:                         
 ---------------------------------------------------------------------
 Center     Atomic      Atomic             Coordinates (Angstroms)
 Number     Number       Type             X           Y           Z
 ---------------------------------------------------------------------
      1          6           0        0.094611    0.704475    0.000000
      2          7           0        0.094611   -0.618982    0.000000
      3          1           0       -1.229949    0.106027   -0.000000
 ---------------------------------------------------------------------
 Rotational constants (GHZ):         297.2856630          44.5908882          38.7749078
 Leave Link  202 at Tue Jan  9 18:13:05 2024, MaxMem=   104857600 cpu:               0.0 elap:               0.0
 (Enter /opt/g16/l301.exe)
 Standard basis: STO-3G (5D, 7F)
 Ernie: Thresh=  0.10000D-02 Tol=  0.10000D-05 Strict=F.
 There are     9 symmetry adapted cartesian basis functions of A'  symmetry.
 There are     2 symmetry adapted cartesian basis functions of A"  symmetry.
 There are     9 symmetry adapted basis functions of A'  symmetry.
 There are     2 symmetry adapted basis functions of A"  symmetry.
    11 basis functions,    33 primitive gaussians,    11 cartesian basis functions
     7 alpha electrons        7 beta electrons
       nuclear repulsion energy        21.4310725613 Hartrees.
 IExCor=    0 DFT=F Ex=HF Corr=None ExCW=0 ScaHFX=  1.000000
 ScaDFX=  1.000000  1.000000  1.000000  1.000000 ScalE2=  1.000000  1.000000
 IRadAn=      5 IRanWt=     -1 IRanGd=            0 ICorTp=0 IEmpDi=  4
 NAtoms=    3 NActive=    3 NUniq=    3 SFac= 1.00D+00 NAtFMM=   60 NAOKFM=F Big=F
 Integral buffers will be    131072 words long.
 Raffenetti 1 integral format.
 Two-electron integral symmetry is turned on.
 Leave Link  301 at Tue Jan  9 18:13:05 2024, MaxMem=   104857600 cpu:               0.0 elap:               0.0
 (Enter /opt/g16/l402.exe)
 External calculation of energy and first derivatives.
 Running external command "python3 -u ../../src/gmm.py R"
         input file       "/home/jh-li/scratch/g16/Gau-48116.EIn"
         output file      "/home/jh-li/scratch/g16/Gau-48116.EOu"
         message file     "/home/jh-li/scratch/g16/Gau-48116.EMs"
         fchk file        "/home/jh-li/scratch/g16/Gau-48116.EFC"
         mat. el file     "/home/jh-li/scratch/g16/Gau-48116.EUF"
>>> Starting ROHF Calculation...
 Read checkpoint file mol_rohf.chk type G16
 Write formatted file mol_rohf.fchk
>>> ROHF Calculation Done!
>>> Preparing Molpro input file...
>>> Starting Molpro Calculation...
>>> Molpro Calculation Done!
>>> Extracting Molpro output file ...
>>> Done!
 Recovered energy= -93.1044623700     dipole=     -0.512951110000      0.020735790000      0.000000000000
 Energy=    -93.1044624     NIter=   0.
 Dipole moment=      -0.512951       0.020736       0.000000
 Leave Link  402 at Tue Jan  9 18:13:13 2024, MaxMem=   104857600 cpu:               0.0 elap:               7.7
 (Enter /opt/g16/l601.exe)
 Leave Link  601 at Tue Jan  9 18:13:13 2024, MaxMem=   104857600 cpu:               0.0 elap:               0.0
 (Enter /opt/g16/l716.exe)
 Dipole        =-5.12951110D-01 2.07357900D-02 0.00000000D+00
 ***** Axes restored to original set *****
 -------------------------------------------------------------------
 Center     Atomic                   Forces (Hartrees/Bohr)
 Number     Number              X              Y              Z
 -------------------------------------------------------------------
      1        6          -0.109473207    0.073775816    0.000000000
      2        7           0.073948659   -0.117958319   -0.000000000
      3        1           0.035524548    0.044182503    0.000000000
 -------------------------------------------------------------------
 Cartesian Forces:  Max     0.117958319 RMS     0.066686589
 Z-matrix is all fixed cartesians, so copy forces.
 Leave Link  716 at Tue Jan  9 18:13:13 2024, MaxMem=   104857600 cpu:               0.0 elap:               0.0
 (Enter /opt/g16/l106.exe)
 NDeriv=      9 NFrqRd=  0 NDerD0=      0 MskFDP=       0 MskDFD=       0 MskDF0=       0
 At 1st pt F.D. properties file   721 does not exist.
 At 1st pt F.D. properties file   722 does not exist.
 D2Numr ... symmetry will be used.
 Leave Link  106 at Tue Jan  9 18:13:13 2024, MaxMem=   104857600 cpu:               0.0 elap:               0.0
 (Enter /opt/g16/l301.exe)
 Standard basis: STO-3G (5D, 7F)
 Ernie: Thresh=  0.10000D-02 Tol=  0.10000D-05 Strict=F.
    11 basis functions,    33 primitive gaussians,    11 cartesian basis functions
     7 alpha electrons        7 beta electrons
       nuclear repulsion energy        21.4296989250 Hartrees.
 IExCor=    0 DFT=F Ex=HF Corr=None ExCW=0 ScaHFX=  1.000000
 ScaDFX=  1.000000  1.000000  1.000000  1.000000 ScalE2=  1.000000  1.000000
 IRadAn=      5 IRanWt=     -1 IRanGd=            0 ICorTp=0 IEmpDi=  4
 NAtoms=    3 NActive=    3 NUniq=    3 SFac= 1.00D+00 NAtFMM=   60 NAOKFM=F Big=F
 Integral buffers will be    131072 words long.
 Raffenetti 1 integral format.
 Two-electron integral symmetry is turned off.
 Leave Link  301 at Tue Jan  9 18:13:13 2024, MaxMem=   104857600 cpu:               0.1 elap:               0.0
 (Enter /opt/g16/l402.exe)
 External calculation of energy and first derivatives.
 Running external command "python3 -u ../../src/gmm.py R"
         input file       "/home/jh-li/scratch/g16/Gau-48116.EIn"
         output file      "/home/jh-li/scratch/g16/Gau-48116.EOu"
         message file     "/home/jh-li/scratch/g16/Gau-48116.EMs"
         fchk file        "/home/jh-li/scratch/g16/Gau-48116.EFC"
         mat. el file     "/home/jh-li/scratch/g16/Gau-48116.EUF"
>>> Starting ROHF Calculation...
 Read checkpoint file mol_rohf.chk type G16
 Write formatted file mol_rohf.fchk
>>> ROHF Calculation Done!
>>> Preparing Molpro input file...
>>> Starting Molpro Calculation...
>>> Molpro Calculation Done!
>>> Extracting Molpro output file ...
>>> Done!
 Recovered energy= -93.1044151800     dipole=     -0.513270500000      0.020878040000     -0.000000000000
 Energy=    -93.1044152     NIter=   0.
 Dipole moment=      -0.513270       0.020878      -0.000000
 Leave Link  402 at Tue Jan  9 18:13:21 2024, MaxMem=   104857600 cpu:               0.0 elap:               7.3
 (Enter /opt/g16/l601.exe)
 Leave Link  601 at Tue Jan  9 18:13:21 2024, MaxMem=   104857600 cpu:               0.0 elap:               0.0
 (Enter /opt/g16/l716.exe)
 Dipole        =-5.13270500D-01 2.08780400D-02-0.00000000D+00
 -------------------------------------------------------------------
 Center     Atomic                   Forces (Hartrees/Bohr)
 Number     Number              X              Y              Z
 -------------------------------------------------------------------
      1        6          -0.024982270   -0.129579810   -0.000000000
      2        7          -0.031494900    0.135612970    0.000000000
      3        1           0.056477170   -0.006033160   -0.000000000
 -------------------------------------------------------------------
 Cartesian Forces:  Max     0.135612970 RMS     0.066686595
 Leave Link  716 at Tue Jan  9 18:13:21 2024, MaxMem=   104857600 cpu:               0.0 elap:               0.0
 (Enter /opt/g16/l106.exe)
 NDeriv=      9 NFrqRd=  0 NDerD0=      0 MskFDP=       0 MskDFD=       0 MskDF0=       0
 Re-enter D2Numr:  atom      1 IXYZ=1 step-up   number 1
 Leave Link  106 at Tue Jan  9 18:13:21 2024, MaxMem=   104857600 cpu:               0.1 elap:               0.1
 (Enter /opt/g16/l301.exe)
 Standard basis: STO-3G (5D, 7F)
 Ernie: Thresh=  0.10000D-02 Tol=  0.10000D-05 Strict=F.
    11 basis functions,    33 primitive gaussians,    11 cartesian basis functions
     7 alpha electrons        7 beta electrons
       nuclear repulsion energy        21.4324381520 Hartrees.
 IExCor=    0 DFT=F Ex=HF Corr=None ExCW=0 ScaHFX=  1.000000
 ScaDFX=  1.000000  1.000000  1.000000  1.000000 ScalE2=  1.000000  1.000000
 IRadAn=      5 IRanWt=     -1 IRanGd=            0 ICorTp=0 IEmpDi=  4
 NAtoms=    3 NActive=    3 NUniq=    3 SFac= 1.00D+00 NAtFMM=   60 NAOKFM=F Big=F
 Integral buffers will be    131072 words long.
 Raffenetti 1 integral format.
 Two-electron integral symmetry is turned off.
 Leave Link  301 at Tue Jan  9 18:13:21 2024, MaxMem=   104857600 cpu:               0.0 elap:               0.0
 (Enter /opt/g16/l402.exe)
 External calculation of energy and first derivatives.
 Running external command "python3 -u ../../src/gmm.py R"
         input file       "/home/jh-li/scratch/g16/Gau-48116.EIn"
         output file      "/home/jh-li/scratch/g16/Gau-48116.EOu"
         message file     "/home/jh-li/scratch/g16/Gau-48116.EMs"
         fchk file        "/home/jh-li/scratch/g16/Gau-48116.EFC"
         mat. el file     "/home/jh-li/scratch/g16/Gau-48116.EUF"
>>> Starting ROHF Calculation...
 Read checkpoint file mol_rohf.chk type G16
 Write formatted file mol_rohf.fchk
>>> ROHF Calculation Done!
>>> Preparing Molpro input file...
>>> Starting Molpro Calculation...
>>> Molpro Calculation Done!
>>> Extracting Molpro output file ...
>>> Done!
 Recovered energy= -93.1045093900     dipole=     -0.512631050000      0.020594400000     -0.000000000000
 Energy=    -93.1045094     NIter=   0.
 Dipole moment=      -0.512631       0.020594      -0.000000
 Leave Link  402 at Tue Jan  9 18:13:28 2024, MaxMem=   104857600 cpu:               0.0 elap:               7.4
 (Enter /opt/g16/l601.exe)
 Leave Link  601 at Tue Jan  9 18:13:28 2024, MaxMem=   104857600 cpu:               0.0 elap:               0.0
 (Enter /opt/g16/l716.exe)
 Dipole        =-5.12631050D-01 2.05944000D-02-0.00000000D+00
 -------------------------------------------------------------------
 Center     Atomic                   Forces (Hartrees/Bohr)
 Number     Number              X              Y              Z
 -------------------------------------------------------------------
      1        6          -0.024802900   -0.129709000   -0.000000000
      2        7          -0.031474840    0.135616460    0.000000000
      3        1           0.056277740   -0.005907460    0.000000000
 -------------------------------------------------------------------
 Cartesian Forces:  Max     0.135616460 RMS     0.066686814
 Leave Link  716 at Tue Jan  9 18:13:28 2024, MaxMem=   104857600 cpu:               0.0 elap:               0.0
 (Enter /opt/g16/l106.exe)
 NDeriv=      9 NFrqRd=  0 NDerD0=      0 MskFDP=       0 MskDFD=       0 MskDF0=       0
 Re-enter D2Numr:  atom      1 IXYZ=1 step-down number 1
 Leave Link  106 at Tue Jan  9 18:13:28 2024, MaxMem=   104857600 cpu:               0.0 elap:               0.1
 (Enter /opt/g16/l301.exe)
 Standard basis: STO-3G (5D, 7F)
 Ernie: Thresh=  0.10000D-02 Tol=  0.10000D-05 Strict=F.
    11 basis functions,    33 primitive gaussians,    11 cartesian basis functions
     7 alpha electrons        7 beta electrons
       nuclear repulsion energy        21.4177739870 Hartrees.
 IExCor=    0 DFT=F Ex=HF Corr=None ExCW=0 ScaHFX=  1.000000
 ScaDFX=  1.000000  1.000000  1.000000  1.000000 ScalE2=  1.000000  1.000000
 IRadAn=      5 IRanWt=     -1 IRanGd=            0 ICorTp=0 IEmpDi=  4
 NAtoms=    3 NActive=    3 NUniq=    3 SFac= 1.00D+00 NAtFMM=   60 NAOKFM=F Big=F
 Integral buffers will be    131072 words long.
 Raffenetti 1 integral format.
 Two-electron integral symmetry is turned off.
 Leave Link  301 at Tue Jan  9 18:13:28 2024, MaxMem=   104857600 cpu:               0.1 elap:               0.0
 (Enter /opt/g16/l402.exe)
 External calculation of energy and first derivatives.
 Running external command "python3 -u ../../src/gmm.py R"
         input file       "/home/jh-li/scratch/g16/Gau-48116.EIn"
         output file      "/home/jh-li/scratch/g16/Gau-48116.EOu"
         message file     "/home/jh-li/scratch/g16/Gau-48116.EMs"
         fchk file        "/home/jh-li/scratch/g16/Gau-48116.EFC"
         mat. el file     "/home/jh-li/scratch/g16/Gau-48116.EUF"
>>> Starting ROHF Calculation...
 Read checkpoint file mol_rohf.chk type G16
 Write formatted file mol_rohf.fchk
>>> ROHF Calculation Done!
>>> Preparing Molpro input file...
>>> Starting Molpro Calculation...
>>> Molpro Calculation Done!
>>> Extracting Molpro output file ...
>>> Done!
 Recovered energy= -93.1042168300     dipole=     -0.512347650000      0.020906490000      0.000000000000
 Energy=    -93.1042168     NIter=   0.
 Dipole moment=      -0.512348       0.020906       0.000000
 Leave Link  402 at Tue Jan  9 18:13:35 2024, MaxMem=   104857600 cpu:               0.0 elap:               7.1
 (Enter /opt/g16/l601.exe)
 Leave Link  601 at Tue Jan  9 18:13:35 2024, MaxMem=   104857600 cpu:               0.0 elap:               0.0
 (Enter /opt/g16/l716.exe)
 Dipole        =-5.12347650D-01 2.09064900D-02 0.00000000D+00
 -------------------------------------------------------------------
 Center     Atomic                   Forces (Hartrees/Bohr)
 Number     Number              X              Y              Z
 -------------------------------------------------------------------
      1        6          -0.024828350   -0.130395700    0.000000000
      2        7          -0.031552830    0.136413580   -0.000000000
      3        1           0.056381170   -0.006017880    0.000000000
 -------------------------------------------------------------------
 Cartesian Forces:  Max     0.136413580 RMS     0.067031322
 Leave Link  716 at Tue Jan  9 18:13:35 2024, MaxMem=   104857600 cpu:               0.0 elap:               0.0
 (Enter /opt/g16/l106.exe)
 NDeriv=      9 NFrqRd=  0 NDerD0=      0 MskFDP=       0 MskDFD=       0 MskDF0=       0
 Re-enter D2Numr:  atom      1 IXYZ=2 step-up   number 1
 Leave Link  106 at Tue Jan  9 18:13:36 2024, MaxMem=   104857600 cpu:               0.0 elap:               0.1
 (Enter /opt/g16/l301.exe)
 Standard basis: STO-3G (5D, 7F)
 Ernie: Thresh=  0.10000D-02 Tol=  0.10000D-05 Strict=F.
    11 basis functions,    33 primitive gaussians,    11 cartesian basis functions
     7 alpha electrons        7 beta electrons
       nuclear repulsion energy        21.4443898032 Hartrees.
 IExCor=    0 DFT=F Ex=HF Corr=None ExCW=0 ScaHFX=  1.000000
 ScaDFX=  1.000000  1.000000  1.000000  1.000000 ScalE2=  1.000000  1.000000
 IRadAn=      5 IRanWt=     -1 IRanGd=            0 ICorTp=0 IEmpDi=  4
 NAtoms=    3 NActive=    3 NUniq=    3 SFac= 1.00D+00 NAtFMM=   60 NAOKFM=F Big=F
 Integral buffers will be    131072 words long.
 Raffenetti 1 integral format.
 Two-electron integral symmetry is turned off.
 Leave Link  301 at Tue Jan  9 18:13:36 2024, MaxMem=   104857600 cpu:               0.0 elap:               0.0
 (Enter /opt/g16/l402.exe)
 External calculation of energy and first derivatives.
 Running external command "python3 -u ../../src/gmm.py R"
         input file       "/home/jh-li/scratch/g16/Gau-48116.EIn"
         output file      "/home/jh-li/scratch/g16/Gau-48116.EOu"
         message file     "/home/jh-li/scratch/g16/Gau-48116.EMs"
         fchk file        "/home/jh-li/scratch/g16/Gau-48116.EFC"
         mat. el file     "/home/jh-li/scratch/g16/Gau-48116.EUF"
>>> Starting ROHF Calculation...
 Read checkpoint file mol_rohf.chk type G16
 Write formatted file mol_rohf.fchk
>>> ROHF Calculation Done!
>>> Preparing Molpro input file...
>>> Starting Molpro Calculation...
>>> Molpro Calculation Done!
>>> Extracting Molpro output file ...
>>> Done!
 Recovered energy= -93.1047064800     dipole=     -0.513554860000      0.020567230000     -0.000000000000
 Energy=    -93.1047065     NIter=   0.
 Dipole moment=      -0.513555       0.020567      -0.000000
 Leave Link  402 at Tue Jan  9 18:13:43 2024, MaxMem=   104857600 cpu:               0.0 elap:               7.2
 (Enter /opt/g16/l601.exe)
 Leave Link  601 at Tue Jan  9 18:13:43 2024, MaxMem=   104857600 cpu:               0.0 elap:               0.0
 (Enter /opt/g16/l716.exe)
 Dipole        =-5.13554860D-01 2.05672300D-02-0.00000000D+00
 -------------------------------------------------------------------
 Center     Atomic                   Forces (Hartrees/Bohr)
 Number     Number              X              Y              Z
 -------------------------------------------------------------------
      1        6          -0.024957500   -0.128886330   -0.000000000
      2        7          -0.031416720    0.134808860    0.000000000
      3        1           0.056374220   -0.005922530   -0.000000000
 -------------------------------------------------------------------
 Cartesian Forces:  Max     0.134808860 RMS     0.066339305
 Leave Link  716 at Tue Jan  9 18:13:43 2024, MaxMem=   104857600 cpu:               0.0 elap:               0.0
 (Enter /opt/g16/l106.exe)
 NDeriv=      9 NFrqRd=  0 NDerD0=      0 MskFDP=       0 MskDFD=       0 MskDF0=       0
 Re-enter D2Numr:  atom      1 IXYZ=2 step-down number 1
 Leave Link  106 at Tue Jan  9 18:13:43 2024, MaxMem=   104857600 cpu:               0.0 elap:               0.1
 (Enter /opt/g16/l301.exe)
 Standard basis: STO-3G (5D, 7F)
 Ernie: Thresh=  0.10000D-02 Tol=  0.10000D-05 Strict=F.
    11 basis functions,    33 primitive gaussians,    11 cartesian basis functions
     7 alpha electrons        7 beta electrons
       nuclear repulsion energy        21.4310672504 Hartrees.
 IExCor=    0 DFT=F Ex=HF Corr=None ExCW=0 ScaHFX=  1.000000
 ScaDFX=  1.000000  1.000000  1.000000  1.000000 ScalE2=  1.000000  1.000000
 IRadAn=      5 IRanWt=     -1 IRanGd=            0 ICorTp=0 IEmpDi=  4
 NAtoms=    3 NActive=    3 NUniq=    3 SFac= 1.00D+00 NAtFMM=   60 NAOKFM=F Big=F
 Integral buffers will be    131072 words long.
 Raffenetti 1 integral format.
 Two-electron integral symmetry is turned off.
 Leave Link  301 at Tue Jan  9 18:13:43 2024, MaxMem=   104857600 cpu:               0.0 elap:               0.0
 (Enter /opt/g16/l402.exe)
 External calculation of energy and first derivatives.
 Running external command "python3 -u ../../src/gmm.py R"
         input file       "/home/jh-li/scratch/g16/Gau-48116.EIn"
         output file      "/home/jh-li/scratch/g16/Gau-48116.EOu"
         message file     "/home/jh-li/scratch/g16/Gau-48116.EMs"
         fchk file        "/home/jh-li/scratch/g16/Gau-48116.EFC"
         mat. el file     "/home/jh-li/scratch/g16/Gau-48116.EUF"
>>> Starting ROHF Calculation...
 Read checkpoint file mol_rohf.chk type G16
 Write formatted file mol_rohf.fchk
>>> ROHF Calculation Done!
>>> Preparing Molpro input file...
>>> Starting Molpro Calculation...
>>> Molpro Calculation Done!
>>> Extracting Molpro output file ...
>>> Done!
 Recovered energy= -93.1044622700     dipole=     -0.512950900000      0.020735960000     -0.000196480000
 Energy=    -93.1044623     NIter=   0.
 Dipole moment=      -0.512951       0.020736      -0.000196
 Leave Link  402 at Tue Jan  9 18:13:50 2024, MaxMem=   104857600 cpu:               0.0 elap:               7.5
 (Enter /opt/g16/l601.exe)
 Leave Link  601 at Tue Jan  9 18:13:50 2024, MaxMem=   104857600 cpu:               0.0 elap:               0.0
 (Enter /opt/g16/l716.exe)
 Dipole        =-5.12950900D-01 2.07359600D-02-1.96480000D-04
 -------------------------------------------------------------------
 Center     Atomic                   Forces (Hartrees/Bohr)
 Number     Number              X              Y              Z
 -------------------------------------------------------------------
      1        6          -0.024892760   -0.129644370   -0.000108254
      2        7          -0.031484940    0.135614690    0.000089448
      3        1           0.056377700   -0.005970320    0.000018806
 -------------------------------------------------------------------
 Cartesian Forces:  Max     0.135614690 RMS     0.066686720
 Leave Link  716 at Tue Jan  9 18:13:51 2024, MaxMem=   104857600 cpu:               0.0 elap:               0.0
 (Enter /opt/g16/l106.exe)
 NDeriv=      9 NFrqRd=  0 NDerD0=      0 MskFDP=       0 MskDFD=       0 MskDF0=       0
 Re-enter D2Numr:  atom      1 IXYZ=3 step-up   number 1
 Skip step-back as it is equivalent to step-up.
 Finish atom      1 at Tue Jan  9 18:13:51 2024
 Leave Link  106 at Tue Jan  9 18:13:51 2024, MaxMem=   104857600 cpu:               0.0 elap:               0.1
 (Enter /opt/g16/l301.exe)
 Standard basis: STO-3G (5D, 7F)
 Ernie: Thresh=  0.10000D-02 Tol=  0.10000D-05 Strict=F.
    11 basis functions,    33 primitive gaussians,    11 cartesian basis functions
     7 alpha electrons        7 beta electrons
       nuclear repulsion energy        21.4296433876 Hartrees.
 IExCor=    0 DFT=F Ex=HF Corr=None ExCW=0 ScaHFX=  1.000000
 ScaDFX=  1.000000  1.000000  1.000000  1.000000 ScalE2=  1.000000  1.000000
 IRadAn=      5 IRanWt=     -1 IRanGd=            0 ICorTp=0 IEmpDi=  4
 NAtoms=    3 NActive=    3 NUniq=    3 SFac= 1.00D+00 NAtFMM=   60 NAOKFM=F Big=F
 Integral buffers will be    131072 words long.
 Raffenetti 1 integral format.
 Two-electron integral symmetry is turned off.
 Leave Link  301 at Tue Jan  9 18:13:51 2024, MaxMem=   104857600 cpu:               0.1 elap:               0.0
 (Enter /opt/g16/l402.exe)
 External calculation of energy and first derivatives.
 Running external command "python3 -u ../../src/gmm.py R"
         input file       "/home/jh-li/scratch/g16/Gau-48116.EIn"
         output file      "/home/jh-li/scratch/g16/Gau-48116.EOu"
         message file     "/home/jh-li/scratch/g16/Gau-48116.EMs"
         fchk file        "/home/jh-li/scratch/g16/Gau-48116.EFC"
         mat. el file     "/home/jh-li/scratch/g16/Gau-48116.EUF"
>>> Starting ROHF Calculation...
 Read checkpoint file mol_rohf.chk type G16
 Write formatted file mol_rohf.fchk
>>> ROHF Calculation Done!
>>> Preparing Molpro input file...
>>> Starting Molpro Calculation...
>>> Molpro Calculation Done!
>>> Extracting Molpro output file ...
>>> Done!
 Recovered energy= -93.1044028400     dipole=     -0.513154840000      0.020685570000      0.000000000000
 Energy=    -93.1044028     NIter=   0.
 Dipole moment=      -0.513155       0.020686       0.000000
 Leave Link  402 at Tue Jan  9 18:13:58 2024, MaxMem=   104857600 cpu:               0.0 elap:               7.4
 (Enter /opt/g16/l601.exe)
 Leave Link  601 at Tue Jan  9 18:13:58 2024, MaxMem=   104857600 cpu:               0.0 elap:               0.0
 (Enter /opt/g16/l716.exe)
 Dipole        =-5.13154840D-01 2.06855700D-02 0.00000000D+00
 -------------------------------------------------------------------
 Center     Atomic                   Forces (Hartrees/Bohr)
 Number     Number              X              Y              Z
 -------------------------------------------------------------------
      1        6          -0.024902800   -0.129712570    0.000000000
      2        7          -0.031513080    0.135591380   -0.000000000
      3        1           0.056415880   -0.005878810    0.000000000
 -------------------------------------------------------------------
 Cartesian Forces:  Max     0.135591380 RMS     0.066700749
 Leave Link  716 at Tue Jan  9 18:13:58 2024, MaxMem=   104857600 cpu:               0.0 elap:               0.0
 (Enter /opt/g16/l106.exe)
 NDeriv=      9 NFrqRd=  0 NDerD0=      0 MskFDP=       0 MskDFD=       0 MskDF0=       0
 Re-enter D2Numr:  atom      2 IXYZ=1 step-up   number 1
 Leave Link  106 at Tue Jan  9 18:13:58 2024, MaxMem=   104857600 cpu:               0.0 elap:               0.1
 (Enter /opt/g16/l301.exe)
 Standard basis: STO-3G (5D, 7F)
 Ernie: Thresh=  0.10000D-02 Tol=  0.10000D-05 Strict=F.
    11 basis functions,    33 primitive gaussians,    11 cartesian basis functions
     7 alpha electrons        7 beta electrons
       nuclear repulsion energy        21.4324935549 Hartrees.
 IExCor=    0 DFT=F Ex=HF Corr=None ExCW=0 ScaHFX=  1.000000
 ScaDFX=  1.000000  1.000000  1.000000  1.000000 ScalE2=  1.000000  1.000000
 IRadAn=      5 IRanWt=     -1 IRanGd=            0 ICorTp=0 IEmpDi=  4
 NAtoms=    3 NActive=    3 NUniq=    3 SFac= 1.00D+00 NAtFMM=   60 NAOKFM=F Big=F
 Integral buffers will be    131072 words long.
 Raffenetti 1 integral format.
 Two-electron integral symmetry is turned off.
 Leave Link  301 at Tue Jan  9 18:13:58 2024, MaxMem=   104857600 cpu:               0.1 elap:               0.0
 (Enter /opt/g16/l402.exe)
 External calculation of energy and first derivatives.
 Running external command "python3 -u ../../src/gmm.py R"
         input file       "/home/jh-li/scratch/g16/Gau-48116.EIn"
         output file      "/home/jh-li/scratch/g16/Gau-48116.EOu"
         message file     "/home/jh-li/scratch/g16/Gau-48116.EMs"
         fchk file        "/home/jh-li/scratch/g16/Gau-48116.EFC"
         mat. el file     "/home/jh-li/scratch/g16/Gau-48116.EUF"
>>> Starting ROHF Calculation...
 Read checkpoint file mol_rohf.chk type G16
 Write formatted file mol_rohf.fchk
>>> ROHF Calculation Done!
>>> Preparing Molpro input file...
>>> Starting Molpro Calculation...
>>> Molpro Calculation Done!
>>> Extracting Molpro output file ...
>>> Done!
 Recovered energy= -93.1045218400     dipole=     -0.512746970000      0.020787410000     -0.000000000000
 Energy=    -93.1045218     NIter=   0.
 Dipole moment=      -0.512747       0.020787      -0.000000
 Leave Link  402 at Tue Jan  9 18:14:06 2024, MaxMem=   104857600 cpu:               0.0 elap:               7.4
 (Enter /opt/g16/l601.exe)
 Leave Link  601 at Tue Jan  9 18:14:06 2024, MaxMem=   104857600 cpu:               0.0 elap:               0.0
 (Enter /opt/g16/l716.exe)
 Dipole        =-5.12746970D-01 2.07874100D-02-0.00000000D+00
 -------------------------------------------------------------------
 Center     Atomic                   Forces (Hartrees/Bohr)
 Number     Number              X              Y              Z
 -------------------------------------------------------------------
      1        6          -0.024882760   -0.129576410    0.000000000
      2        7          -0.031456510    0.135638110   -0.000000000
      3        1           0.056339270   -0.006061690    0.000000000
 -------------------------------------------------------------------
 Cartesian Forces:  Max     0.135638110 RMS     0.066672720
 Leave Link  716 at Tue Jan  9 18:14:06 2024, MaxMem=   104857600 cpu:               0.0 elap:               0.0
 (Enter /opt/g16/l106.exe)
 NDeriv=      9 NFrqRd=  0 NDerD0=      0 MskFDP=       0 MskDFD=       0 MskDF0=       0
 Re-enter D2Numr:  atom      2 IXYZ=1 step-down number 1
 Leave Link  106 at Tue Jan  9 18:14:06 2024, MaxMem=   104857600 cpu:               0.1 elap:               0.1
 (Enter /opt/g16/l301.exe)
 Standard basis: STO-3G (5D, 7F)
 Ernie: Thresh=  0.10000D-02 Tol=  0.10000D-05 Strict=F.
    11 basis functions,    33 primitive gaussians,    11 cartesian basis functions
     7 alpha electrons        7 beta electrons
       nuclear repulsion energy        21.4445511194 Hartrees.
 IExCor=    0 DFT=F Ex=HF Corr=None ExCW=0 ScaHFX=  1.000000
 ScaDFX=  1.000000  1.000000  1.000000  1.000000 ScalE2=  1.000000  1.000000
 IRadAn=      5 IRanWt=     -1 IRanGd=            0 ICorTp=0 IEmpDi=  4
 NAtoms=    3 NActive=    3 NUniq=    3 SFac= 1.00D+00 NAtFMM=   60 NAOKFM=F Big=F
 Integral buffers will be    131072 words long.
 Raffenetti 1 integral format.
 Two-electron integral symmetry is turned off.
 Leave Link  301 at Tue Jan  9 18:14:06 2024, MaxMem=   104857600 cpu:               0.0 elap:               0.0
 (Enter /opt/g16/l402.exe)
 External calculation of energy and first derivatives.
 Running external command "python3 -u ../../src/gmm.py R"
         input file       "/home/jh-li/scratch/g16/Gau-48116.EIn"
         output file      "/home/jh-li/scratch/g16/Gau-48116.EOu"
         message file     "/home/jh-li/scratch/g16/Gau-48116.EMs"
         fchk file        "/home/jh-li/scratch/g16/Gau-48116.EFC"
         mat. el file     "/home/jh-li/scratch/g16/Gau-48116.EUF"
>>> Starting ROHF Calculation...
 Read checkpoint file mol_rohf.chk type G16
 Write formatted file mol_rohf.fchk
>>> ROHF Calculation Done!
>>> Preparing Molpro input file...
>>> Starting Molpro Calculation...
>>> Molpro Calculation Done!
>>> Extracting Molpro output file ...
>>> Done!
 Recovered energy= -93.1047177100     dipole=     -0.513603690000      0.020270480000     -0.000000000000
 Energy=    -93.1047177     NIter=   0.
 Dipole moment=      -0.513604       0.020270      -0.000000
 Leave Link  402 at Tue Jan  9 18:14:13 2024, MaxMem=   104857600 cpu:               0.0 elap:               7.0
 (Enter /opt/g16/l601.exe)
 Leave Link  601 at Tue Jan  9 18:14:13 2024, MaxMem=   104857600 cpu:               0.0 elap:               0.0
 (Enter /opt/g16/l716.exe)
 Dipole        =-5.13603690D-01 2.02704800D-02-0.00000000D+00
 -------------------------------------------------------------------
 Center     Atomic                   Forces (Hartrees/Bohr)
 Number     Number              X              Y              Z
 -------------------------------------------------------------------
      1        6          -0.024894580   -0.128838560   -0.000000000
      2        7          -0.031508240    0.134796990   -0.000000000
      3        1           0.056402820   -0.005958420    0.000000000
 -------------------------------------------------------------------
 Cartesian Forces:  Max     0.134796990 RMS     0.066331569
 Leave Link  716 at Tue Jan  9 18:14:13 2024, MaxMem=   104857600 cpu:               0.0 elap:               0.0
 (Enter /opt/g16/l106.exe)
 NDeriv=      9 NFrqRd=  0 NDerD0=      0 MskFDP=       0 MskDFD=       0 MskDF0=       0
 Re-enter D2Numr:  atom      2 IXYZ=2 step-up   number 1
 Leave Link  106 at Tue Jan  9 18:14:13 2024, MaxMem=   104857600 cpu:               0.0 elap:               0.1
 (Enter /opt/g16/l301.exe)
 Standard basis: STO-3G (5D, 7F)
 Ernie: Thresh=  0.10000D-02 Tol=  0.10000D-05 Strict=F.
    11 basis functions,    33 primitive gaussians,    11 cartesian basis functions
     7 alpha electrons        7 beta electrons
       nuclear repulsion energy        21.4176128472 Hartrees.
 IExCor=    0 DFT=F Ex=HF Corr=None ExCW=0 ScaHFX=  1.000000
 ScaDFX=  1.000000  1.000000  1.000000  1.000000 ScalE2=  1.000000  1.000000
 IRadAn=      5 IRanWt=     -1 IRanGd=            0 ICorTp=0 IEmpDi=  4
 NAtoms=    3 NActive=    3 NUniq=    3 SFac= 1.00D+00 NAtFMM=   60 NAOKFM=F Big=F
 Integral buffers will be    131072 words long.
 Raffenetti 1 integral format.
 Two-electron integral symmetry is turned off.
 Leave Link  301 at Tue Jan  9 18:14:13 2024, MaxMem=   104857600 cpu:               0.0 elap:               0.0
 (Enter /opt/g16/l402.exe)
 External calculation of energy and first derivatives.
 Running external command "python3 -u ../../src/gmm.py R"
         input file       "/home/jh-li/scratch/g16/Gau-48116.EIn"
         output file      "/home/jh-li/scratch/g16/Gau-48116.EOu"
         message file     "/home/jh-li/scratch/g16/Gau-48116.EMs"
         fchk file        "/home/jh-li/scratch/g16/Gau-48116.EFC"
         mat. el file     "/home/jh-li/scratch/g16/Gau-48116.EUF"
>>> Starting ROHF Calculation...
 Read checkpoint file mol_rohf.chk type G16
 Write formatted file mol_rohf.fchk
>>> ROHF Calculation Done!
>>> Preparing Molpro input file...
>>> Starting Molpro Calculation...
>>> Molpro Calculation Done!
>>> Extracting Molpro output file ...
>>> Done!
 Recovered energy= -93.1042054900     dipole=     -0.512299520000      0.021200370000     -0.000000000000
 Energy=    -93.1042055     NIter=   0.
 Dipole moment=      -0.512300       0.021200      -0.000000
 Leave Link  402 at Tue Jan  9 18:14:20 2024, MaxMem=   104857600 cpu:               0.0 elap:               7.3
 (Enter /opt/g16/l601.exe)
 Leave Link  601 at Tue Jan  9 18:14:20 2024, MaxMem=   104857600 cpu:               0.0 elap:               0.0
 (Enter /opt/g16/l716.exe)
 Dipole        =-5.12299520D-01 2.12003700D-02-0.00000000D+00
 -------------------------------------------------------------------
 Center     Atomic                   Forces (Hartrees/Bohr)
 Number     Number              X              Y              Z
 -------------------------------------------------------------------
      1        6          -0.024891110   -0.130443240    0.000000000
      2        7          -0.031461470    0.136425250   -0.000000000
      3        1           0.056352590   -0.005982010    0.000000000
 -------------------------------------------------------------------
 Cartesian Forces:  Max     0.136425250 RMS     0.067039025
 Leave Link  716 at Tue Jan  9 18:14:20 2024, MaxMem=   104857600 cpu:               0.0 elap:               0.0
 (Enter /opt/g16/l106.exe)
 NDeriv=      9 NFrqRd=  0 NDerD0=      0 MskFDP=       0 MskDFD=       0 MskDF0=       0
 Re-enter D2Numr:  atom      2 IXYZ=2 step-down number 1
 Leave Link  106 at Tue Jan  9 18:14:20 2024, MaxMem=   104857600 cpu:               0.0 elap:               0.1
 (Enter /opt/g16/l301.exe)
 Standard basis: STO-3G (5D, 7F)
 Ernie: Thresh=  0.10000D-02 Tol=  0.10000D-05 Strict=F.
    11 basis functions,    33 primitive gaussians,    11 cartesian basis functions
     7 alpha electrons        7 beta electrons
       nuclear repulsion energy        21.4310672295 Hartrees.
 IExCor=    0 DFT=F Ex=HF Corr=None ExCW=0 ScaHFX=  1.000000
 ScaDFX=  1.000000  1.000000  1.000000  1.000000 ScalE2=  1.000000  1.000000
 IRadAn=      5 IRanWt=     -1 IRanGd=            0 ICorTp=0 IEmpDi=  4
 NAtoms=    3 NActive=    3 NUniq=    3 SFac= 1.00D+00 NAtFMM=   60 NAOKFM=F Big=F
 Integral buffers will be    131072 words long.
 Raffenetti 1 integral format.
 Two-electron integral symmetry is turned off.
 Leave Link  301 at Tue Jan  9 18:14:20 2024, MaxMem=   104857600 cpu:               0.0 elap:               0.0
 (Enter /opt/g16/l402.exe)
 External calculation of energy and first derivatives.
 Running external command "python3 -u ../../src/gmm.py R"
         input file       "/home/jh-li/scratch/g16/Gau-48116.EIn"
         output file      "/home/jh-li/scratch/g16/Gau-48116.EOu"
         message file     "/home/jh-li/scratch/g16/Gau-48116.EMs"
         fchk file        "/home/jh-li/scratch/g16/Gau-48116.EFC"
         mat. el file     "/home/jh-li/scratch/g16/Gau-48116.EUF"
>>> Starting ROHF Calculation...
 Read checkpoint file mol_rohf.chk type G16
 Write formatted file mol_rohf.fchk
>>> ROHF Calculation Done!
>>> Preparing Molpro input file...
>>> Starting Molpro Calculation...
>>> Molpro Calculation Done!
>>> Extracting Molpro output file ...
>>> Done!
 Recovered energy= -93.1044622600     dipole=     -0.512950860000      0.020735890000     -0.000190780000
 Energy=    -93.1044623     NIter=   0.
 Dipole moment=      -0.512951       0.020736      -0.000191
 Leave Link  402 at Tue Jan  9 18:14:28 2024, MaxMem=   104857600 cpu:               0.0 elap:               7.3
 (Enter /opt/g16/l601.exe)
 Leave Link  601 at Tue Jan  9 18:14:28 2024, MaxMem=   104857600 cpu:               0.0 elap:               0.0
 (Enter /opt/g16/l716.exe)
 Dipole        =-5.12950860D-01 2.07358900D-02-1.90780000D-04
 -------------------------------------------------------------------
 Center     Atomic                   Forces (Hartrees/Bohr)
 Number     Number              X              Y              Z
 -------------------------------------------------------------------
      1        6          -0.024892810   -0.129644420    0.000089461
      2        7          -0.031484870    0.135614680   -0.000113218
      3        1           0.056377670   -0.005970260    0.000023758
 -------------------------------------------------------------------
 Cartesian Forces:  Max     0.135614680 RMS     0.066686725
 Leave Link  716 at Tue Jan  9 18:14:28 2024, MaxMem=   104857600 cpu:               0.0 elap:               0.0
 (Enter /opt/g16/l106.exe)
 NDeriv=      9 NFrqRd=  0 NDerD0=      0 MskFDP=       0 MskDFD=       0 MskDF0=       0
 Re-enter D2Numr:  atom      2 IXYZ=3 step-up   number 1
 Skip step-back as it is equivalent to step-up.
 Finish atom      2 at Tue Jan  9 18:14:28 2024
 Leave Link  106 at Tue Jan  9 18:14:28 2024, MaxMem=   104857600 cpu:               0.0 elap:               0.1
 (Enter /opt/g16/l301.exe)
 Standard basis: STO-3G (5D, 7F)
 Ernie: Thresh=  0.10000D-02 Tol=  0.10000D-05 Strict=F.
    11 basis functions,    33 primitive gaussians,    11 cartesian basis functions
     7 alpha electrons        7 beta electrons
       nuclear repulsion energy        21.4338687335 Hartrees.
 IExCor=    0 DFT=F Ex=HF Corr=None ExCW=0 ScaHFX=  1.000000
 ScaDFX=  1.000000  1.000000  1.000000  1.000000 ScalE2=  1.000000  1.000000
 IRadAn=      5 IRanWt=     -1 IRanGd=            0 ICorTp=0 IEmpDi=  4
 NAtoms=    3 NActive=    3 NUniq=    3 SFac= 1.00D+00 NAtFMM=   60 NAOKFM=F Big=F
 Integral buffers will be    131072 words long.
 Raffenetti 1 integral format.
 Two-electron integral symmetry is turned off.
 Leave Link  301 at Tue Jan  9 18:14:28 2024, MaxMem=   104857600 cpu:               0.0 elap:               0.0
 (Enter /opt/g16/l402.exe)
 External calculation of energy and first derivatives.
 Running external command "python3 -u ../../src/gmm.py R"
         input file       "/home/jh-li/scratch/g16/Gau-48116.EIn"
         output file      "/home/jh-li/scratch/g16/Gau-48116.EOu"
         message file     "/home/jh-li/scratch/g16/Gau-48116.EMs"
         fchk file        "/home/jh-li/scratch/g16/Gau-48116.EFC"
         mat. el file     "/home/jh-li/scratch/g16/Gau-48116.EUF"
>>> Starting ROHF Calculation...
 Read checkpoint file mol_rohf.chk type G16
 Write formatted file mol_rohf.fchk
>>> ROHF Calculation Done!
>>> Preparing Molpro input file...
>>> Starting Molpro Calculation...
>>> Molpro Calculation Done!
>>> Extracting Molpro output file ...
>>> Done!
 Recovered energy= -93.1045688400     dipole=     -0.512427270000      0.020644880000      0.000000000000
 Energy=    -93.1045688     NIter=   0.
 Dipole moment=      -0.512427       0.020645       0.000000
 Leave Link  402 at Tue Jan  9 18:14:35 2024, MaxMem=   104857600 cpu:               0.0 elap:               7.0
 (Enter /opt/g16/l601.exe)
 Leave Link  601 at Tue Jan  9 18:14:35 2024, MaxMem=   104857600 cpu:               0.0 elap:               0.0
 (Enter /opt/g16/l716.exe)
 Dipole        =-5.12427270D-01 2.06448800D-02 0.00000000D+00
 -------------------------------------------------------------------
 Center     Atomic                   Forces (Hartrees/Bohr)
 Number     Number              X              Y              Z
 -------------------------------------------------------------------
      1        6          -0.024792840   -0.129640540   -0.000000000
      2        7          -0.031446440    0.135639480    0.000000000
      3        1           0.056239280   -0.005998940   -0.000000000
 -------------------------------------------------------------------
 Cartesian Forces:  Max     0.135639480 RMS     0.066672621
 Leave Link  716 at Tue Jan  9 18:14:35 2024, MaxMem=   104857600 cpu:               0.0 elap:               0.0
 (Enter /opt/g16/l106.exe)
 NDeriv=      9 NFrqRd=  0 NDerD0=      0 MskFDP=       0 MskDFD=       0 MskDF0=       0
 Re-enter D2Numr:  atom      3 IXYZ=1 step-up   number 1
 Leave Link  106 at Tue Jan  9 18:14:35 2024, MaxMem=   104857600 cpu:               0.1 elap:               0.1
 (Enter /opt/g16/l301.exe)
 Standard basis: STO-3G (5D, 7F)
 Ernie: Thresh=  0.10000D-02 Tol=  0.10000D-05 Strict=F.
    11 basis functions,    33 primitive gaussians,    11 cartesian basis functions
     7 alpha electrons        7 beta electrons
       nuclear repulsion energy        21.4282793390 Hartrees.
 IExCor=    0 DFT=F Ex=HF Corr=None ExCW=0 ScaHFX=  1.000000
 ScaDFX=  1.000000  1.000000  1.000000  1.000000 ScalE2=  1.000000  1.000000
 IRadAn=      5 IRanWt=     -1 IRanGd=            0 ICorTp=0 IEmpDi=  4
 NAtoms=    3 NActive=    3 NUniq=    3 SFac= 1.00D+00 NAtFMM=   60 NAOKFM=F Big=F
 Integral buffers will be    131072 words long.
 Raffenetti 1 integral format.
 Two-electron integral symmetry is turned off.
 Leave Link  301 at Tue Jan  9 18:14:35 2024, MaxMem=   104857600 cpu:               0.0 elap:               0.0
 (Enter /opt/g16/l402.exe)
 External calculation of energy and first derivatives.
 Running external command "python3 -u ../../src/gmm.py R"
         input file       "/home/jh-li/scratch/g16/Gau-48116.EIn"
         output file      "/home/jh-li/scratch/g16/Gau-48116.EOu"
         message file     "/home/jh-li/scratch/g16/Gau-48116.EMs"
         fchk file        "/home/jh-li/scratch/g16/Gau-48116.EFC"
         mat. el file     "/home/jh-li/scratch/g16/Gau-48116.EUF"
>>> Starting ROHF Calculation...
 Read checkpoint file mol_rohf.chk type G16
 Write formatted file mol_rohf.fchk
>>> ROHF Calculation Done!
>>> Preparing Molpro input file...
>>> Starting Molpro Calculation...
>>> Molpro Calculation Done!
>>> Extracting Molpro output file ...
>>> Done!
 Recovered energy= -93.1043556400     dipole=     -0.513474590000      0.020826680000      0.000000000000
 Energy=    -93.1043556     NIter=   0.
 Dipole moment=      -0.513475       0.020827       0.000000
 Leave Link  402 at Tue Jan  9 18:14:42 2024, MaxMem=   104857600 cpu:               0.0 elap:               7.1
 (Enter /opt/g16/l601.exe)
 Leave Link  601 at Tue Jan  9 18:14:42 2024, MaxMem=   104857600 cpu:               0.0 elap:               0.0
 (Enter /opt/g16/l716.exe)
 Dipole        =-5.13474590D-01 2.08266800D-02 0.00000000D+00
 -------------------------------------------------------------------
 Center     Atomic                   Forces (Hartrees/Bohr)
 Number     Number              X              Y              Z
 -------------------------------------------------------------------
      1        6          -0.024992240   -0.129647510   -0.000000000
      2        7          -0.031523070    0.135589260    0.000000000
      3        1           0.056515310   -0.005941750    0.000000000
 -------------------------------------------------------------------
 Cartesian Forces:  Max     0.135589260 RMS     0.066700429
 Leave Link  716 at Tue Jan  9 18:14:42 2024, MaxMem=   104857600 cpu:               0.0 elap:               0.0
 (Enter /opt/g16/l106.exe)
 NDeriv=      9 NFrqRd=  0 NDerD0=      0 MskFDP=       0 MskDFD=       0 MskDF0=       0
 Re-enter D2Numr:  atom      3 IXYZ=1 step-down number 1
 Leave Link  106 at Tue Jan  9 18:14:42 2024, MaxMem=   104857600 cpu:               0.1 elap:               0.1
 (Enter /opt/g16/l301.exe)
 Standard basis: STO-3G (5D, 7F)
 Ernie: Thresh=  0.10000D-02 Tol=  0.10000D-05 Strict=F.
    11 basis functions,    33 primitive gaussians,    11 cartesian basis functions
     7 alpha electrons        7 beta electrons
       nuclear repulsion energy        21.4309109133 Hartrees.
 IExCor=    0 DFT=F Ex=HF Corr=None ExCW=0 ScaHFX=  1.000000
 ScaDFX=  1.000000  1.000000  1.000000  1.000000 ScalE2=  1.000000  1.000000
 IRadAn=      5 IRanWt=     -1 IRanGd=            0 ICorTp=0 IEmpDi=  4
 NAtoms=    3 NActive=    3 NUniq=    3 SFac= 1.00D+00 NAtFMM=   60 NAOKFM=F Big=F
 Integral buffers will be    131072 words long.
 Raffenetti 1 integral format.
 Two-electron integral symmetry is turned off.
 Leave Link  301 at Tue Jan  9 18:14:42 2024, MaxMem=   104857600 cpu:               0.0 elap:               0.0
 (Enter /opt/g16/l402.exe)
 External calculation of energy and first derivatives.
 Running external command "python3 -u ../../src/gmm.py R"
         input file       "/home/jh-li/scratch/g16/Gau-48116.EIn"
         output file      "/home/jh-li/scratch/g16/Gau-48116.EOu"
         message file     "/home/jh-li/scratch/g16/Gau-48116.EMs"
         fchk file        "/home/jh-li/scratch/g16/Gau-48116.EFC"
         mat. el file     "/home/jh-li/scratch/g16/Gau-48116.EUF"
>>> Starting ROHF Calculation...
 Read checkpoint file mol_rohf.chk type G16
 Write formatted file mol_rohf.fchk
>>> ROHF Calculation Done!
>>> Preparing Molpro input file...
>>> Starting Molpro Calculation...
>>> Molpro Calculation Done!
>>> Extracting Molpro output file ...
>>> Done!
 Recovered energy= -93.1044511200     dipole=     -0.512902770000      0.021031570000      0.000000000000
 Energy=    -93.1044511     NIter=   0.
 Dipole moment=      -0.512903       0.021032       0.000000
 Leave Link  402 at Tue Jan  9 18:14:49 2024, MaxMem=   104857600 cpu:               0.0 elap:               7.1
 (Enter /opt/g16/l601.exe)
 Leave Link  601 at Tue Jan  9 18:14:50 2024, MaxMem=   104857600 cpu:               0.0 elap:               0.0
 (Enter /opt/g16/l716.exe)
 Dipole        =-5.12902770D-01 2.10315700D-02 0.00000000D+00
 -------------------------------------------------------------------
 Center     Atomic                   Forces (Hartrees/Bohr)
 Number     Number              X              Y              Z
 -------------------------------------------------------------------
      1        6          -0.024955690   -0.129691830    0.000000000
      2        7          -0.031393440    0.135626170   -0.000000000
      3        1           0.056349130   -0.005934340    0.000000000
 -------------------------------------------------------------------
 Cartesian Forces:  Max     0.135626170 RMS     0.066694331
 Leave Link  716 at Tue Jan  9 18:14:50 2024, MaxMem=   104857600 cpu:               0.0 elap:               0.0
 (Enter /opt/g16/l106.exe)
 NDeriv=      9 NFrqRd=  0 NDerD0=      0 MskFDP=       0 MskDFD=       0 MskDF0=       0
 Re-enter D2Numr:  atom      3 IXYZ=2 step-up   number 1
 Leave Link  106 at Tue Jan  9 18:14:50 2024, MaxMem=   104857600 cpu:               0.0 elap:               0.1
 (Enter /opt/g16/l301.exe)
 Standard basis: STO-3G (5D, 7F)
 Ernie: Thresh=  0.10000D-02 Tol=  0.10000D-05 Strict=F.
    11 basis functions,    33 primitive gaussians,    11 cartesian basis functions
     7 alpha electrons        7 beta electrons
       nuclear repulsion energy        21.4312333694 Hartrees.
 IExCor=    0 DFT=F Ex=HF Corr=None ExCW=0 ScaHFX=  1.000000
 ScaDFX=  1.000000  1.000000  1.000000  1.000000 ScalE2=  1.000000  1.000000
 IRadAn=      5 IRanWt=     -1 IRanGd=            0 ICorTp=0 IEmpDi=  4
 NAtoms=    3 NActive=    3 NUniq=    3 SFac= 1.00D+00 NAtFMM=   60 NAOKFM=F Big=F
 Integral buffers will be    131072 words long.
 Raffenetti 1 integral format.
 Two-electron integral symmetry is turned off.
 Leave Link  301 at Tue Jan  9 18:14:50 2024, MaxMem=   104857600 cpu:               0.0 elap:               0.0
 (Enter /opt/g16/l402.exe)
 External calculation of energy and first derivatives.
 Running external command "python3 -u ../../src/gmm.py R"
         input file       "/home/jh-li/scratch/g16/Gau-48116.EIn"
         output file      "/home/jh-li/scratch/g16/Gau-48116.EOu"
         message file     "/home/jh-li/scratch/g16/Gau-48116.EMs"
         fchk file        "/home/jh-li/scratch/g16/Gau-48116.EFC"
         mat. el file     "/home/jh-li/scratch/g16/Gau-48116.EUF"
>>> Starting ROHF Calculation...
 Read checkpoint file mol_rohf.chk type G16
 Write formatted file mol_rohf.fchk
>>> ROHF Calculation Done!
>>> Preparing Molpro input file...
>>> Starting Molpro Calculation...
>>> Molpro Calculation Done!
>>> Extracting Molpro output file ...
>>> Done!
 Recovered energy= -93.1044736900     dipole=     -0.512999730000      0.020440930000      0.000000000000
 Energy=    -93.1044737     NIter=   0.
 Dipole moment=      -0.513000       0.020441       0.000000
 Leave Link  402 at Tue Jan  9 18:14:57 2024, MaxMem=   104857600 cpu:               0.0 elap:               7.2
 (Enter /opt/g16/l601.exe)
 Leave Link  601 at Tue Jan  9 18:14:57 2024, MaxMem=   104857600 cpu:               0.0 elap:               0.0
 (Enter /opt/g16/l716.exe)
 Dipole        =-5.12999730D-01 2.04409300D-02 0.00000000D+00
 -------------------------------------------------------------------
 Center     Atomic                   Forces (Hartrees/Bohr)
 Number     Number              X              Y              Z
 -------------------------------------------------------------------
      1        6          -0.024830000   -0.129596520    0.000000000
      2        7          -0.031576300    0.135602630   -0.000000000
      3        1           0.056406310   -0.006006100   -0.000000000
 -------------------------------------------------------------------
 Cartesian Forces:  Max     0.135602630 RMS     0.066678889
 Leave Link  716 at Tue Jan  9 18:14:57 2024, MaxMem=   104857600 cpu:               0.0 elap:               0.0
 (Enter /opt/g16/l106.exe)
 NDeriv=      9 NFrqRd=  0 NDerD0=      0 MskFDP=       0 MskDFD=       0 MskDF0=       0
 Re-enter D2Numr:  atom      3 IXYZ=2 step-down number 1
 Leave Link  106 at Tue Jan  9 18:14:57 2024, MaxMem=   104857600 cpu:               0.1 elap:               0.1
 (Enter /opt/g16/l301.exe)
 Standard basis: STO-3G (5D, 7F)
 Ernie: Thresh=  0.10000D-02 Tol=  0.10000D-05 Strict=F.
    11 basis functions,    33 primitive gaussians,    11 cartesian basis functions
     7 alpha electrons        7 beta electrons
       nuclear repulsion energy        21.4310715064 Hartrees.
 IExCor=    0 DFT=F Ex=HF Corr=None ExCW=0 ScaHFX=  1.000000
 ScaDFX=  1.000000  1.000000  1.000000  1.000000 ScalE2=  1.000000  1.000000
 IRadAn=      5 IRanWt=     -1 IRanGd=            0 ICorTp=0 IEmpDi=  4
 NAtoms=    3 NActive=    3 NUniq=    3 SFac= 1.00D+00 NAtFMM=   60 NAOKFM=F Big=F
 Integral buffers will be    131072 words long.
 Raffenetti 1 integral format.
 Two-electron integral symmetry is turned off.
 Leave Link  301 at Tue Jan  9 18:14:57 2024, MaxMem=   104857600 cpu:               0.0 elap:               0.0
 (Enter /opt/g16/l402.exe)
 External calculation of energy and first derivatives.
 Running external command "python3 -u ../../src/gmm.py R"
         input file       "/home/jh-li/scratch/g16/Gau-48116.EIn"
         output file      "/home/jh-li/scratch/g16/Gau-48116.EOu"
         message file     "/home/jh-li/scratch/g16/Gau-48116.EMs"
         fchk file        "/home/jh-li/scratch/g16/Gau-48116.EFC"
         mat. el file     "/home/jh-li/scratch/g16/Gau-48116.EUF"
>>> Starting ROHF Calculation...
 Read checkpoint file mol_rohf.chk type G16
 Write formatted file mol_rohf.fchk
>>> ROHF Calculation Done!
>>> Preparing Molpro input file...
>>> Starting Molpro Calculation...
>>> Molpro Calculation Done!
>>> Extracting Molpro output file ...
>>> Done!
 Recovered energy= -93.1044623300     dipole=     -0.512951160000      0.020735830000      0.000387260000
 Energy=    -93.1044623     NIter=   0.
 Dipole moment=      -0.512951       0.020736       0.000387
 Leave Link  402 at Tue Jan  9 18:15:04 2024, MaxMem=   104857600 cpu:               0.0 elap:               7.4
 (Enter /opt/g16/l601.exe)
 Leave Link  601 at Tue Jan  9 18:15:05 2024, MaxMem=   104857600 cpu:               0.0 elap:               0.0
 (Enter /opt/g16/l716.exe)
 Dipole        =-5.12951160D-01 2.07358300D-02 3.87260000D-04
 -------------------------------------------------------------------
 Center     Atomic                   Forces (Hartrees/Bohr)
 Number     Number              X              Y              Z
 -------------------------------------------------------------------
      1        6          -0.024892820   -0.129644140    0.000018793
      2        7          -0.031484890    0.135614410    0.000023770
      3        1           0.056377710   -0.005970270   -0.000042563
 -------------------------------------------------------------------
 Cartesian Forces:  Max     0.135614410 RMS     0.066686593
 Leave Link  716 at Tue Jan  9 18:15:05 2024, MaxMem=   104857600 cpu:               0.0 elap:               0.0
 (Enter /opt/g16/l106.exe)
 NDeriv=      9 NFrqRd=  0 NDerD0=      0 MskFDP=       0 MskDFD=       0 MskDF0=       0
 Re-enter D2Numr:  atom      3 IXYZ=3 step-up   number 1
 Skip step-back as it is equivalent to step-up.
 Finish atom      3 at Tue Jan  9 18:15:05 2024
 Maximum difference in off-diagonal FC elements:
 I=  8 J=  5 Difference=    1.3229430276D-05
 Max difference between analytic and numerical forces:
 I=  2 Difference=    8.8329334981D-05
 FinFTb:  IFil= 1 IFilD=  777 LTop=  1 LFil=         4 LTop1=  0 IMask=  1
 Leave Link  106 at Tue Jan  9 18:15:05 2024, MaxMem=   104857600 cpu:               0.1 elap:               0.1
 (Enter /opt/g16/l716.exe)
 Dipole        =-5.12951110D-01 2.07357900D-02-6.16297582D-33
 Full mass-weighted force constant matrix:
 Low frequencies --- -910.5258   -2.2753    0.0072    2.2753  465.0369  532.2431
 Low frequencies ---  783.2613 1305.5941 1443.4136
 ******    1 imaginary frequencies (negative Signs) ****** 
 Diagonal vibrational polarizability:
        1.2443752       0.7453969       0.0000000
 Harmonic frequencies (cm**-1), IR intensities (KM/Mole), Raman scattering
 activities (A**4/AMU), depolarization ratios for plane and unpolarized
 incident light, reduced masses (AMU), force constants (mDyne/A),
 and normal coordinates:
                      1                      2                      3
                     A'                     A'                     A'
 Frequencies --   -902.1292              1305.5927              1443.1430
 Red. masses --      1.1833                 7.8939                 1.1032
 Frc consts  --      0.5674                 7.9279                 1.3537
 IR Inten    --     20.1990                 9.6830                90.4675
  Atom  AN      X      Y      Z        X      Y      Z        X      Y      Z
     1   6    -0.07  -0.05  -0.00     0.02   0.58   0.00    -0.06   0.04  -0.00
     2   7     0.08  -0.02   0.00     0.03  -0.50   0.00    -0.02  -0.05  -0.00
     3   1    -0.17   0.98  -0.00    -0.64   0.09  -0.00     0.98   0.15   0.00

 -------------------
 - Thermochemistry -
 -------------------
 Temperature   298.150 Kelvin.  Pressure   1.00000 Atm.
 Atom     1 has atomic number  6 and mass  12.00000
 Atom     2 has atomic number  7 and mass  14.00307
 Atom     3 has atomic number  1 and mass   1.00783
 Molecular mass:    27.01090 amu.
 Principal axes and moments of inertia in atomic units:
                           1         2         3
     Eigenvalues --     6.07073  40.47332  46.54405
           X           -0.01524   0.99988   0.00000
           Y            0.99988   0.01524   0.00000
           Z           -0.00000   0.00000   1.00000
 This molecule is an asymmetric top.
 Rotational symmetry number  1.
 Rotational temperatures (Kelvin)     14.26746     2.14003     1.86090
 Rotational constants (GHZ):         297.28566    44.59089    38.77491
    1 imaginary frequencies ignored.
 Zero-point vibrational energy      16441.1 (Joules/Mol)
                                    3.92951 (Kcal/Mol)
 Vibrational temperatures:   1878.46  2076.36
          (Kelvin)
 
 Zero-point correction=                           0.006262 (Hartree/Particle)
 Thermal correction to Energy=                    0.009112
 Thermal correction to Enthalpy=                  0.010056
 Thermal correction to Gibbs Free Energy=        -0.015100
 Sum of electronic and zero-point Energies=            -93.098200
 Sum of electronic and thermal Energies=               -93.095351
 Sum of electronic and thermal Enthalpies=             -93.094406
 Sum of electronic and thermal Free Energies=          -93.119563
 
                     E (Thermal)             CV                S
                      KCal/Mol        Cal/Mol-Kelvin    Cal/Mol-Kelvin
 Total                    5.718              6.198             52.946
 Electronic               0.000              0.000              0.000
 Translational            0.889              2.981             35.816
 Rotational               0.889              2.981             17.088
 Vibrational              3.940              0.237              0.042
                       Q            Log10(Q)             Ln(Q)
 Total Bot       0.882265D+07          6.945599         15.992833
 Total V=0       0.669813D+10          9.825954         22.625094
 Vib (Bot)       0.132085D-02         -2.879146         -6.629479
 Vib (V=0)       0.100279D+01          0.001209          0.002783
 Electronic      0.100000D+01          0.000000          0.000000
 Translational   0.551776D+07          6.741762         15.523482
 Rotational      0.121055D+04          3.082983          7.098830
 
                                                         Title Card Required
                                                             IR Spectrum
 
     1            1                                                                                                                  
     4            3                                                                                                                  
     4            0                                                                                                                  
     3            6                                                                                                                  
 
     X            X                                                                                                                  
     X            X                                                                                                                  
     X                                                                                                                               
     X                                                                                                                               
     X                                                                                                                               
     X                                                                                                                               
     X                                                                                                                               
     X                                                                                                                               
     X                                                                                                                               
     X                                                                                                                               
     X                                                                                                                               
     X                                                                                                                               
     X                                                                                                                               
     X                                                                                                                               
     X                                                                                                                               
     X                                                                                                                               
     X                                                                                                                               
     X                                                                                                                               
     X                                                                                                                               
     X                                                                                                                               
 
 ***** Axes restored to original set *****
 -------------------------------------------------------------------
 Center     Atomic                   Forces (Hartrees/Bohr)
 Number     Number              X              Y              Z
 -------------------------------------------------------------------
      1        6          -0.109473207    0.073775816    0.000000000
      2        7           0.073948659   -0.117958319   -0.000000000
      3        1           0.035524548    0.044182503    0.000000000
 -------------------------------------------------------------------
 Cartesian Forces:  Max     0.117958319 RMS     0.066686589
 Z-matrix is all fixed cartesians, so copy forces.
 Force constants in Cartesian coordinates: 
                1             2             3             4             5 
      1  0.190182D+00
      2 -0.176133D+00  0.256639D+00
      3  0.000000D+00  0.000000D+00  0.572854D-01
      4 -0.192328D+00  0.197492D+00  0.000000D+00  0.236383D+00
      5  0.232591D+00 -0.226952D+00  0.000000D+00 -0.207856D+00  0.209404D+00
      6  0.000000D+00  0.000000D+00 -0.473372D-01  0.000000D+00  0.000000D+00
      7  0.214792D-02 -0.213584D-01  0.000000D+00 -0.440528D-01 -0.247331D-01
      8 -0.564574D-01 -0.296876D-01  0.000000D+00  0.103633D-01  0.175450D-01
      9  0.000000D+00  0.000000D+00 -0.994823D-02  0.000000D+00  0.000000D+00
                6             7             8             9 
      6  0.599125D-01
      7  0.000000D+00  0.419062D-01
      8  0.000000D+00  0.460915D-01  0.121413D-01
      9 -0.125753D-01  0.000000D+00  0.000000D+00  0.225235D-01
 Leave Link  716 at Tue Jan  9 18:15:05 2024, MaxMem=   104857600 cpu:               0.0 elap:               0.0
 (Enter /opt/g16/l103.exe)

 GradGradGradGradGradGradGradGradGradGradGradGradGradGradGradGradGradGrad
 Berny optimization.
 Search for a local minimum.
 Step number   1 out of a maximum of    2
 All quantities printed in internal units (Hartrees-Bohrs-Radians)
 Second derivative matrix not updated -- analytic derivatives used.
 The second derivative matrix:
                          X1        Y1        Z1        X2        Y2
           X1           0.19018
           Y1          -0.17613   0.25664
           Z1          -0.00000   0.00000   0.05729
           X2          -0.19233   0.19749   0.00000   0.23638
           Y2           0.23259  -0.22695  -0.00000  -0.20786   0.20940
           Z2           0.00000  -0.00000  -0.04734  -0.00000   0.00000
           X3           0.00215  -0.02136  -0.00000  -0.04405  -0.02473
           Y3          -0.05646  -0.02969   0.00000   0.01036   0.01754
           Z3          -0.00000   0.00000  -0.00995   0.00000   0.00000
                          Z2        X3        Y3        Z3
           Z2           0.05991
           X3           0.00000   0.04191
           Y3           0.00000   0.04609   0.01214
           Z3          -0.01258   0.00000  -0.00000   0.02252
 ITU=  0
     Eigenvalues ---   -0.07551   0.10297   0.83963
 Eigenvalue     1 is  -7.55D-02 should be greater than     0.000000 Eigenvector:
                          Y3        X3        X1        Y2        X2
   1                    0.71058  -0.47561   0.35154  -0.34294  -0.14570
                          Y1        Z3        Z1        Z2
   1                    0.08033   0.00000  -0.00000  -0.00000
 Quadratic step=7.017D-01 exceeds max=3.000D-01 adjusted using Lamda=-1.822D-01.
 Angle between NR and scaled steps=  19.14 degrees.
 Angle between quadratic step and forces=  33.30 degrees.
 ClnCor:  largest displacement from symmetrization is 3.93D-17 for atom     3.
 Linear search not attempted -- first point.
 ClnCor:  largest displacement from symmetrization is 2.48D-16 for atom     2.
 B after Tr=    -0.027841   -0.037096    0.000000
         Rot=    1.000000   -0.000000   -0.000000   -0.000029 Ang=  -0.00 deg.
 Variable       Old X    -DE/DX   Delta X   Delta X   Delta X     New X
                                 (Linear)    (Quad)   (Total)
    X1        1.06419  -0.10947   0.00000  -0.12583  -0.15361   0.91058
    Y1       -1.08915   0.07378   0.00000   0.06245   0.02541  -1.06375
    Z1       -0.00000   0.00000   0.00000   0.00000  -0.00000  -0.00000
    X2       -0.70903   0.07395   0.00000   0.06016   0.03228  -0.67674
    Y2        0.67453  -0.11796   0.00000  -0.12266  -0.15979   0.51474
    Z2        0.00000  -0.00000   0.00000  -0.00000   0.00000   0.00000
    X3       -1.50279   0.03552   0.00000   0.14906   0.12133  -1.38146
    Y3       -2.06633   0.04418   0.00000   0.17156   0.13439  -1.93194
    Z3       -0.00000   0.00000   0.00000   0.00000  -0.00000  -0.00000
         Item               Value     Threshold  Converged?
 Maximum Force            0.117958     0.000450     NO 
 RMS     Force            0.066687     0.000300     NO 
 Maximum Displacement     0.159792     0.001800     NO 
 RMS     Displacement     0.096377     0.001200     NO 
 Predicted change in Energy=-3.344225D-02
 GradGradGradGradGradGradGradGradGradGradGradGradGradGradGradGradGradGrad

 Leave Link  103 at Tue Jan  9 18:15:05 2024, MaxMem=   104857600 cpu:               0.0 elap:               0.0
 (Enter /opt/g16/l9999.exe)
 Unable to Open any file for archive entry.
 1\1\GINC-DESKTOP-1D9QDE1\Freq\External='python3 -u ../../src/gmm.py'\Z
 DO\C1H1N1\JH-LI\09-Jan-2024\0\\#p external="python3 -u ../../src/gmm.p
 y" freq=num\\Title Card Required\\0,1\C,0.56314246,-0.57635434,0.\N,-0
 .37519999,0.35694724,0.\H,-0.79524238,-1.09345422,0.\\Version=ES64L-G1
 6RevC.01\HF=-93.1044624\RMSD=0.000e+00\RMSF=6.669e-02\ZeroPoint=0.0062
 621\Thermal=0.0091118\ETot=-93.0953506\HTot=-93.0944064\GTot=-93.11956
 26\Dipole=-0.3470312,-0.3783096,0.\DipoleDeriv=0.1582121,-0.0062304,0.
 ,-0.2505965,-0.237639,0.,0.,0.,-0.1039727,-0.3633544,-0.0910041,0.,0.2
 271187,0.0093984,0.,0.,0.,-0.1009564,0.2051437,0.0972332,0.,0.0234765,
 0.2282419,0.,0.,0.,0.2049292\PG=CS [SG(C1H1N1)]\NImag=1\\0.19018203,-0
 .17613296,0.25663933,0.,0.,0.05728543,-0.19232797,0.19749204,0.,0.2363
 8275,0.23259104,-0.22695236,0.,-0.20785599,0.20940407,0.,0.,-0.0473372
 2,0.,0.,0.05991249,0.00214792,-0.02135841,0.,-0.04405279,-0.02473306,0
 .,0.04190620,-0.05645741,-0.02968763,0.,0.01036330,0.01754498,0.,0.046
 09147,0.01214131,0.,0.,-0.00994823,0.,0.,-0.01257527,0.,0.,0.02252351\
 \0.10947321,-0.07377582,0.,-0.07394866,0.11795832,0.,-0.03552455,-0.04
 418250,0.\\\@
 The archive entry for this job was punched.


 We're simply so accustomed to the marvels of everyday thought
 that we never wonder about it.
 -- Marvin Minsky in "Why people think computers are smart"
 Job cpu time:       0 days  0 hours  0 minutes  3.5 seconds.
 Elapsed time:       0 days  0 hours  1 minutes 59.1 seconds.
 File lengths (MBytes):  RWF=     43 Int=      0 D2E=      0 Chk=     38 Scr=      1
 Normal termination of Gaussian 16 at Tue Jan  9 18:15:05 2024.
 Initial command:
 /opt/g16/l1.exe "/home/jh-li/scratch/g16/Gau-48097.inp" -scrdir="/home/jh-li/scratch/g16/"
 Entering Link 1 = /opt/g16/l1.exe PID=     51315.
  
 Copyright (c) 1988-2019, Gaussian, Inc.  All Rights Reserved.
  
 This is part of the Gaussian(R) 16 program.  It is based on
 the Gaussian(R) 09 system (copyright 2009, Gaussian, Inc.),
 the Gaussian(R) 03 system (copyright 2003, Gaussian, Inc.),
 the Gaussian(R) 98 system (copyright 1998, Gaussian, Inc.),
 the Gaussian(R) 94 system (copyright 1995, Gaussian, Inc.),
 the Gaussian 92(TM) system (copyright 1992, Gaussian, Inc.),
 the Gaussian 90(TM) system (copyright 1990, Gaussian, Inc.),
 the Gaussian 88(TM) system (copyright 1988, Gaussian, Inc.),
 the Gaussian 86(TM) system (copyright 1986, Carnegie Mellon
 University), and the Gaussian 82(TM) system (copyright 1983,
 Carnegie Mellon University). Gaussian is a federally registered
 trademark of Gaussian, Inc.
  
 This software contains proprietary and confidential information,
 including trade secrets, belonging to Gaussian, Inc.
  
 This software is provided under written license and may be
 used, copied, transmitted, or stored only in accord with that
 written license.
  
 The following legend is applicable only to US Government
 contracts under FAR:
  
                    RESTRICTED RIGHTS LEGEND
  
 Use, reproduction and disclosure by the US Government is
 subject to restrictions as set forth in subparagraphs (a)
 and (c) of the Commercial Computer Software - Restricted
 Rights clause in FAR 52.227-19.
  
 Gaussian, Inc.
 340 Quinnipiac St., Bldg. 40, Wallingford CT 06492
  
  
 ---------------------------------------------------------------
 Warning -- This program may not be used in any manner that
 competes with the business of Gaussian, Inc. or will provide
 assistance to any competitor of Gaussian, Inc.  The licensee
 of this program is prohibited from giving any competitor of
 Gaussian, Inc. access to this program.  By using this program,
 the user acknowledges that Gaussian, Inc. is engaged in the
 business of creating and licensing software in the field of
 computational chemistry and represents and warrants to the
 licensee that it is not a competitor of Gaussian, Inc. and that
 it will not use this program in any manner prohibited above.
 ---------------------------------------------------------------
  

 Cite this work as:
 Gaussian 16, Revision C.01,
 M. J. Frisch, G. W. Trucks, H. B. Schlegel, G. E. Scuseria, 
 M. A. Robb, J. R. Cheeseman, G. Scalmani, V. Barone, 
 G. A. Petersson, H. Nakatsuji, X. Li, M. Caricato, A. V. Marenich, 
 J. Bloino, B. G. Janesko, R. Gomperts, B. Mennucci, H. P. Hratchian, 
 J. V. Ortiz, A. F. Izmaylov, J. L. Sonnenberg, D. Williams-Young, 
 F. Ding, F. Lipparini, F. Egidi, J. Goings, B. Peng, A. Petrone, 
 T. Henderson, D. Ranasinghe, V. G. Zakrzewski, J. Gao, N. Rega, 
 G. Zheng, W. Liang, M. Hada, M. Ehara, K. Toyota, R. Fukuda, 
 J. Hasegawa, M. Ishida, T. Nakajima, Y. Honda, O. Kitao, H. Nakai, 
 T. Vreven, K. Throssell, J. A. Montgomery, Jr., J. E. Peralta, 
 F. Ogliaro, M. J. Bearpark, J. J. Heyd, E. N. Brothers, K. N. Kudin, 
 V. N. Staroverov, T. A. Keith, R. Kobayashi, J. Normand, 
 K. Raghavachari, A. P. Rendell, J. C. Burant, S. S. Iyengar, 
 J. Tomasi, M. Cossi, J. M. Millam, M. Klene, C. Adamo, R. Cammi, 
 J. W. Ochterski, R. L. Martin, K. Morokuma, O. Farkas, 
 J. B. Foresman, and D. J. Fox, Gaussian, Inc., Wallingford CT, 2019.
 
 ******************************************
 Gaussian 16:  ES64L-G16RevC.01  3-Jul-2019
                 9-Jan-2024 
 ******************************************
 %nproc=1
 Will use up to    1 processors via shared memory.
 %chk=HCN-ts-opt-freq.chk
 ----------------------------------------------------------------------
 #p external="python3 -u ../../src/gmm.py" opt=(rcfc,noeigen,nomicro,ts
 ) geom=allcheck
 ----------------------------------------------------------------------
 1/5=1,10=5,11=1,18=20,26=1,29=7,38=1/1,3;
 2/9=110,12=2,40=1/2;
 3/11=9,14=-4,25=1,30=1,41=9900000,43=2,71=1/1;
 4/20=17,22=1,24=3,113=1,114=1/2;
 6/7=2,8=2,9=2,10=2/1;
 7/44=-1/16;
 1/5=1,10=5,11=1,18=20,26=1/3(2);
 2/9=110/2;
 99//99;
 2/9=110/2;
 3/11=9,14=-2,25=1,30=1,41=9900000,43=2,71=1/1;
 4/16=2,20=17,22=1,24=3,113=1,114=1/2;
 7/44=-1/16;
 1/5=1,11=1,18=20,26=1/3(-4);
 2/9=110/2;
 6/7=2,8=2,9=2,10=2/1;
 99/9=10/99;
 Leave Link    1 at Tue Jan  9 18:15:05 2024, MaxMem=           0 cpu:               0.0 elap:               0.0
 (Enter /opt/g16/l101.exe)
 Structure from the checkpoint file:  "HCN-ts-opt-freq.chk"
 -------------------
 Title Card Required
 -------------------
 Charge =  0 Multiplicity = 1
 No Z-Matrix found in chk file; cartesian coordinates used.
  C                                                 0.563142460000     -0.576354340000     -0.000000000000
  N                                                -0.375199990000      0.356947240000      0.000000000000
  H                                                -0.795242380000     -1.093454220000     -0.000000000000
 Recover connectivity data from disk.
 Add virtual bond connecting atoms H3         and C1         Dist= 2.75D+00.
 Add virtual bond connecting atoms H3         and N2         Dist= 2.85D+00.
 ITRead=  0  0  0
 MicOpt= -1 -1 -1
 NAtoms=      3 NQM=        3 NQMF=       0 NMMI=      0 NMMIF=      0
                NMic=       0 NMicF=      0.
                    Isotopes and Nuclear Properties:
 (Nuclear quadrupole moments (NQMom) in fm**2, nuclear magnetic moments (NMagM)
  in nuclear magnetons)

  Atom         1           2           3
 IAtWgt=          12          14           1
 AtmWgt=  12.0000000  14.0030740   1.0078250
 NucSpn=           0           2           1
 AtZEff=   3.6000000   4.5500000   1.0000000
 NQMom=    0.0000000   2.0440000   0.0000000
 NMagM=    0.0000000   0.4037610   2.7928460
 AtZNuc=   6.0000000   7.0000000   1.0000000
 Leave Link  101 at Tue Jan  9 18:15:05 2024, MaxMem=   104857600 cpu:               0.3 elap:               0.3
 (Enter /opt/g16/l103.exe)

 GradGradGradGradGradGradGradGradGradGradGradGradGradGradGradGradGradGrad
 Berny optimization.
 Initialization pass.
[...]
 (Enter /opt/g16/l402.exe)
 External calculation of energy and first derivatives.
 Running external command "python3 -u ../../src/gmm.py R"
         input file       "/home/jh-li/scratch/g16/Gau-52674.EIn"
         output file      "/home/jh-li/scratch/g16/Gau-52674.EOu"
         message file     "/home/jh-li/scratch/g16/Gau-52674.EMs"
         fchk file        "/home/jh-li/scratch/g16/Gau-52674.EFC"
         mat. el file     "/home/jh-li/scratch/g16/Gau-52674.EUF"
>>> Starting ROHF Calculation...
 Read checkpoint file mol_rohf.chk type G16
 Write formatted file mol_rohf.fchk
>>> ROHF Calculation Done!
>>> Preparing Molpro input file...
>>> Starting Molpro Calculation...
>>> Molpro Calculation Done!
>>> Extracting Molpro output file ...
>>> Done!
 Recovered energy= -93.1311074400     dipole=     -0.455101490000      0.045162830000      0.000000000000
 Energy=    -93.1311074     NIter=   0.
 Dipole moment=      -0.455101       0.045163       0.000000
 Leave Link  402 at Tue Jan  9 18:17:50 2024, MaxMem=   104857600 cpu:               0.0 elap:               7.4
 (Enter /opt/g16/l601.exe)
 Leave Link  601 at Tue Jan  9 18:17:50 2024, MaxMem=   104857600 cpu:               0.0 elap:               0.0
 (Enter /opt/g16/l716.exe)
 Dipole        =-4.55101490D-01 4.51628300D-02 0.00000000D+00
 -------------------------------------------------------------------
 Center     Atomic                   Forces (Hartrees/Bohr)
 Number     Number              X              Y              Z
 -------------------------------------------------------------------
      1        6          -0.000017569    0.000007995    0.000000000
      2        7          -0.000163109    0.000087103   -0.000000000
      3        1           0.000180678   -0.000095098   -0.000000000
 -------------------------------------------------------------------
 Cartesian Forces:  Max     0.000180678 RMS     0.000092046
 Leave Link  716 at Tue Jan  9 18:17:50 2024, MaxMem=   104857600 cpu:               0.0 elap:               0.0
 (Enter /opt/g16/l106.exe)
 NDeriv=      9 NFrqRd=  0 NDerD0=      0 MskFDP=       0 MskDFD=       0 MskDF0=       0
 Re-enter D2Numr:  atom      3 IXYZ=2 step-down number 1
 Leave Link  106 at Tue Jan  9 18:17:50 2024, MaxMem=   104857600 cpu:               0.1 elap:               0.1
 (Enter /opt/g16/l301.exe)
 Standard basis: STO-3G (5D, 7F)
 Ernie: Thresh=  0.10000D-02 Tol=  0.10000D-05 Strict=F.
    11 basis functions,    33 primitive gaussians,    11 cartesian basis functions
     7 alpha electrons        7 beta electrons
       nuclear repulsion energy        23.6091352135 Hartrees.
 IExCor=    0 DFT=F Ex=HF Corr=None ExCW=0 ScaHFX=  1.000000
 ScaDFX=  1.000000  1.000000  1.000000  1.000000 ScalE2=  1.000000  1.000000
 IRadAn=      5 IRanWt=     -1 IRanGd=            0 ICorTp=0 IEmpDi=  4
 NAtoms=    3 NActive=    3 NUniq=    3 SFac= 1.00D+00 NAtFMM=   60 NAOKFM=F Big=F
 Integral buffers will be    131072 words long.
 Raffenetti 1 integral format.
 Two-electron integral symmetry is turned off.
 Leave Link  301 at Tue Jan  9 18:17:50 2024, MaxMem=   104857600 cpu:               0.1 elap:               0.0
 (Enter /opt/g16/l402.exe)
 External calculation of energy and first derivatives.
 Running external command "python3 -u ../../src/gmm.py R"
         input file       "/home/jh-li/scratch/g16/Gau-52674.EIn"
         output file      "/home/jh-li/scratch/g16/Gau-52674.EOu"
         message file     "/home/jh-li/scratch/g16/Gau-52674.EMs"
         fchk file        "/home/jh-li/scratch/g16/Gau-52674.EFC"
         mat. el file     "/home/jh-li/scratch/g16/Gau-52674.EUF"
>>> Starting ROHF Calculation...
 Read checkpoint file mol_rohf.chk type G16
 Write formatted file mol_rohf.fchk
>>> ROHF Calculation Done!
>>> Preparing Molpro input file...
>>> Starting Molpro Calculation...
>>> Molpro Calculation Done!
>>> Extracting Molpro output file ...
>>> Done!
 Recovered energy= -93.1311073300     dipole=     -0.455047690000      0.045770840000      0.000398520000
 Energy=    -93.1311073     NIter=   0.
 Dipole moment=      -0.455048       0.045771       0.000399
 Leave Link  402 at Tue Jan  9 18:17:58 2024, MaxMem=   104857600 cpu:               0.0 elap:               7.8
 (Enter /opt/g16/l601.exe)
 Leave Link  601 at Tue Jan  9 18:17:58 2024, MaxMem=   104857600 cpu:               0.0 elap:               0.0
 (Enter /opt/g16/l716.exe)
 Dipole        =-4.55047690D-01 4.57708400D-02 3.98520000D-04
 -------------------------------------------------------------------
 Center     Atomic                   Forces (Hartrees/Bohr)
 Number     Number              X              Y              Z
 -------------------------------------------------------------------
      1        6          -0.000049602   -0.000083259    0.000000043
      2        7          -0.000069969    0.000099981    0.000000061
      3        1           0.000119571   -0.000016721   -0.000000105
 -------------------------------------------------------------------
 Cartesian Forces:  Max     0.000119571 RMS     0.000065711
 Leave Link  716 at Tue Jan  9 18:17:58 2024, MaxMem=   104857600 cpu:               0.0 elap:               0.0
 (Enter /opt/g16/l106.exe)
 NDeriv=      9 NFrqRd=  0 NDerD0=      0 MskFDP=       0 MskDFD=       0 MskDF0=       0
 Re-enter D2Numr:  atom      3 IXYZ=3 step-up   number 1
 Skip step-back as it is equivalent to step-up.
 Finish atom      3 at Tue Jan  9 18:17:58 2024
 Maximum difference in off-diagonal FC elements:
 I=  2 J=  1 Difference=    4.2995526676D-05
 Max difference between analytic and numerical forces:
 I=  2 Difference=    1.2821351407D-04
 FinFTb:  IFil= 1 IFilD=  777 LTop=  1 LFil=         4 LTop1=  0 IMask=  1
 Leave Link  106 at Tue Jan  9 18:17:58 2024, MaxMem=   104857600 cpu:               0.1 elap:               0.1
 (Enter /opt/g16/l716.exe)
 Dipole        =-4.55047580D-01 4.57707600D-02 0.00000000D+00
 Full mass-weighted force constant matrix:
 Low frequencies ----1185.3520   -1.6097   -0.0395   -0.0061   12.6658   18.0347
 Low frequencies ---   38.8379 1953.5724 2593.9763
 ******    1 imaginary frequencies (negative Signs) ****** 
 Diagonal vibrational polarizability:
        0.5692682       2.0543344       0.0000000
 Harmonic frequencies (cm**-1), IR intensities (KM/Mole), Raman scattering
 activities (A**4/AMU), depolarization ratios for plane and unpolarized
 incident light, reduced masses (AMU), force constants (mDyne/A),
 and normal coordinates:
                      1                      2                      3
                     A'                     A'                     A'
 Frequencies --  -1185.3520              1953.5724              2593.9763
 Red. masses --      1.1632                12.1405                 1.0601
 Frc consts  --      0.9630                27.2988                 4.2027
 IR Inten    --    106.4935                11.7132               125.3498
  Atom  AN      X      Y      Z        X      Y      Z        X      Y      Z
     1   6    -0.07  -0.05  -0.00    -0.02   0.73   0.00    -0.07  -0.01  -0.00
     2   7     0.07  -0.03  -0.00     0.01  -0.64  -0.00    -0.02   0.00   0.00
     3   1    -0.15   0.98   0.00     0.11   0.22   0.00     0.99   0.10   0.00

 -------------------
 - Thermochemistry -
 -------------------
 Temperature   298.150 Kelvin.  Pressure   1.00000 Atm.
 Atom     1 has atomic number  6 and mass  12.00000
 Atom     2 has atomic number  7 and mass  14.00307
 Atom     3 has atomic number  1 and mass   1.00783
 Molecular mass:    27.01090 amu.
 Principal axes and moments of inertia in atomic units:
                           1         2         3
     Eigenvalues --     4.47787  34.15759  38.63546
           X           -0.03647   0.99933   0.00000
           Y            0.99933   0.03647   0.00000
           Z           -0.00000  -0.00000   1.00000
 This molecule is an asymmetric top.
 Rotational symmetry number  1.
 Rotational temperatures (Kelvin)     19.34267     2.53572     2.24182
 Rotational constants (GHZ):         403.03586    52.83573    46.71205
    1 imaginary frequencies ignored.
 Zero-point vibrational energy      27200.4 (Joules/Mol)
                                    6.50105 (Kcal/Mol)
 Vibrational temperatures:   2810.75  3732.15
          (Kelvin)
 
 Zero-point correction=                           0.010360 (Hartree/Particle)
 Thermal correction to Energy=                    0.013193
 Thermal correction to Enthalpy=                  0.014138
 Thermal correction to Gibbs Free Energy=        -0.010688
 Sum of electronic and zero-point Energies=            -93.120747
 Sum of electronic and thermal Energies=               -93.117914
 Sum of electronic and thermal Enthalpies=             -93.116970
 Sum of electronic and thermal Free Energies=          -93.141795
 
                     E (Thermal)             CV                S
                      KCal/Mol        Cal/Mol-Kelvin    Cal/Mol-Kelvin
 Total                    8.279              5.977             52.250
 Electronic               0.000              0.000              0.000
 Translational            0.889              2.981             35.816
 Rotational               0.889              2.981             16.432
 Vibrational              6.502              0.015              0.002
                       Q            Log10(Q)             Ln(Q)
 Total Bot       0.824358D+05          4.916116         11.319775
 Total V=0       0.480194D+10          9.681417         22.292286
 Vib (Bot)       0.171686D-04         -4.765264        -10.972427
 Vib (V=0)       0.100008D+01          0.000037          0.000084
 Electronic      0.100000D+01          0.000000          0.000000
 Translational   0.551776D+07          6.741762         15.523482
 Rotational      0.870198D+03          2.939618          6.768720
 
                                                         Title Card Required
                                                             IR Spectrum
 
     2                               1                                                                                               
     5                               9                                                                                               
     9                               5                                                                                               
     4                               4                                                                                               
 
     X                               X                                                                                               
     X                               X                                                                                               
     X                                                                                                                               
     X                                                                                                                               
     X                                                                                                                               
     X                                                                                                                               
     X                                                                                                                               
     X                                                                                                                               
     X                                                                                                                               
     X                                                                                                                               
     X                                                                                                                               
     X                                                                                                                               
     X                                                                                                                               
     X                                                                                                                               
     X                                                                                                                               
     X                                                                                                                               
     X                                                                                                                               
     X                                                                                                                               
     X                                                                                                                               
     X                                                                                                                               
 
 ***** Axes restored to original set *****
 -------------------------------------------------------------------
 Center     Atomic                   Forces (Hartrees/Bohr)
 Number     Number              X              Y              Z
 -------------------------------------------------------------------
      1        6          -0.000091629    0.000031246    0.000000000
      2        7           0.000011671   -0.000121452   -0.000000000
      3        1           0.000079958    0.000090206    0.000000000
 -------------------------------------------------------------------
 Cartesian Forces:  Max     0.000121452 RMS     0.000065650
 Force constants in Cartesian coordinates: 
                1             2             3             4             5 
      1  0.420402D+00
      2 -0.378883D+00  0.590905D+00
      3  0.000000D+00  0.000000D+00  0.522352D-04
      4 -0.321023D+00  0.474030D+00  0.000000D+00  0.374670D+00
      5  0.521757D+00 -0.543654D+00  0.000000D+00 -0.483395D+00  0.541139D+00
      6  0.000000D+00  0.000000D+00 -0.254197D-04  0.000000D+00  0.000000D+00
      7 -0.993803D-01 -0.951485D-01  0.000000D+00 -0.536478D-01 -0.383623D-01
      8 -0.142875D+00 -0.472516D-01  0.000000D+00  0.936397D-02  0.251501D-02
      9  0.000000D+00  0.000000D+00 -0.268589D-04  0.000000D+00  0.000000D+00
                6             7             8             9 
      6  0.539240D-04
      7  0.000000D+00  0.153028D+00
      8  0.000000D+00  0.133511D+00  0.447368D-01
      9 -0.284907D-04  0.000000D+00  0.000000D+00  0.553795D-04
 Leave Link  716 at Tue Jan  9 18:17:58 2024, MaxMem=   104857600 cpu:               0.0 elap:               0.0
 (Enter /opt/g16/l103.exe)

 GradGradGradGradGradGradGradGradGradGradGradGradGradGradGradGradGradGrad
 Berny optimization.
 Search for a local minimum.
 Step number   1 out of a maximum of    2
 All quantities printed in internal units (Hartrees-Bohrs-Radians)
 Second derivative matrix not updated -- analytic derivatives used.
 The second derivative matrix:
                          X1        Y1        Z1        X2        Y2
           X1           0.42040
           Y1          -0.37888   0.59091
           Z1          -0.00000   0.00000   0.00005
           X2          -0.32102   0.47403   0.00000   0.37467
           Y2           0.52176  -0.54365  -0.00000  -0.48339   0.54114
           Z2           0.00000  -0.00000  -0.00003  -0.00000   0.00000
           X3          -0.09938  -0.09515  -0.00000  -0.05365  -0.03836
           Y3          -0.14287  -0.04725   0.00000   0.00936   0.00252
           Z3          -0.00000   0.00000  -0.00003   0.00000   0.00000
                          Z2        X3        Y3        Z3
           Z2           0.00005
           X3           0.00000   0.15303
           Y3          -0.00000   0.13351   0.04474
           Z3          -0.00003   0.00000  -0.00000   0.00006
 ITU=  0
     Eigenvalues ---   -0.11466   0.35262   1.86096
 Eigenvalue     1 is  -1.15D-01 should be greater than     0.000000 Eigenvector:
                          Y3        X3        X1        Y2        X2
   1                    0.77683  -0.39901   0.32998  -0.32184  -0.15469
                          Y1        Z3        Z2        Z1
   1                    0.03049   0.00000  -0.00000  -0.00000
 Angle between quadratic step and forces=  46.21 degrees.
 ClnCor:  largest displacement from symmetrization is 8.13D-20 for atom     3.
 Linear search not attempted -- first point.
 ClnCor:  largest displacement from symmetrization is 2.48D-16 for atom     2.
 B after Tr=    -0.000054   -0.000091    0.000000
         Rot=    1.000000    0.000000    0.000000   -0.000016 Ang=  -0.00 deg.
 Variable       Old X    -DE/DX   Delta X   Delta X   Delta X     New X
                                 (Linear)    (Quad)   (Total)
    X1        0.81471  -0.00009   0.00000   0.00001  -0.00001   0.81470
    Y1       -1.12237   0.00003   0.00000  -0.00002  -0.00008  -1.12245
    Z1       -0.00000   0.00000   0.00000  -0.00000   0.00000   0.00000
    X2       -0.67067   0.00001   0.00000  -0.00006  -0.00013  -0.67080
    Y2        0.61925  -0.00012   0.00000  -0.00017  -0.00029   0.61896
    Z2        0.00000  -0.00000   0.00000  -0.00000  -0.00000   0.00000
    X3       -1.29166   0.00008   0.00000   0.00013   0.00014  -1.29152
    Y3       -1.97783   0.00009   0.00000   0.00050   0.00037  -1.97746
    Z3       -0.00000   0.00000   0.00000   0.00000  -0.00000  -0.00000
         Item               Value     Threshold  Converged?
 Maximum Force            0.000121     0.000450     YES
 RMS     Force            0.000066     0.000300     YES
 Maximum Displacement     0.000366     0.001800     YES
 RMS     Displacement     0.000170     0.001200     YES
 Predicted change in Energy=-5.714628D-08
 Optimization completed.
    -- Stationary point found.
 GradGradGradGradGradGradGradGradGradGradGradGradGradGradGradGradGradGrad

 Leave Link  103 at Tue Jan  9 18:17:58 2024, MaxMem=   104857600 cpu:               0.0 elap:               0.0
 (Enter /opt/g16/l9999.exe)
 Unable to Open any file for archive entry.
 1\1\GINC-DESKTOP-1D9QDE1\Freq\External='python3 -u ../../src/gmm.py'\Z
 DO\C1H1N1\JH-LI\09-Jan-2024\0\\#p external="python3 -u ../../src/gmm.p
 y" freq=num geom=allcheck\\Title Card Required\\0,1\C,0.4311236864,-0.
 5939301587,0.\N,-0.3549049724,0.3276916577,0.\H,-0.683518624,-1.046622
 819,0.\\Version=ES64L-G16RevC.01\HF=-93.1311073\RMSD=0.000e+00\RMSF=6.
 565e-05\ZeroPoint=0.0103601\Thermal=0.0131934\ETot=-93.1179139\HTot=-9
 3.1169698\GTot=-93.1417953\Dipole=-0.3165254,-0.3301135,0.\DipoleDeriv
 =-0.10659,0.0608066,0.,-0.1968683,-0.2790876,0.,0.,0.,-0.1249282,-0.19
 3251,-0.1464555,0.,0.2443181,-0.0917956,0.,0.,0.,-0.0859595,0.2998421,
 0.0856476,0.,-0.0474511,0.3708848,0.,0.,0.,0.2108877\PG=CS [SG(C1H1N1)
 ]\NImag=1\\0.42040242,-0.37888257,0.59090511,0.,0.,0.00005224,-0.32102
 315,0.47403043,0.,0.37467042,0.52175699,-0.54365445,0.,-0.48339487,0.5
 4113905,0.,0.,-0.00002542,0.,0.,0.00005392,-0.09938030,-0.09514853,0.,
 -0.05364780,-0.03836233,0.,0.15302813,-0.14287494,-0.04725161,0.,0.009
 36397,0.00251501,0.,0.13351055,0.04473680,0.,0.,-0.00002686,0.,0.,-0.0
 0002849,0.,0.,0.00005538\\0.00009163,-0.00003125,0.,-0.00001167,0.0001
 2145,0.,-0.00007996,-0.00009021,0.\\\@
 The archive entry for this job was punched.


 AS FAR AS THE LAWS OF MATHEMATICS REFER TO REALITY,
 THEY ARE NOT CERTAIN; AND AS FAR AS THEY ARE CERTAIN,
 THEY DO NOT REFER TO REALITY.

                                         -- ALBERT EINSTEIN
 Job cpu time:       0 days  0 hours  0 minutes  3.5 seconds.
 Elapsed time:       0 days  0 hours  1 minutes 59.7 seconds.
 File lengths (MBytes):  RWF=     43 Int=      0 D2E=      0 Chk=     38 Scr=      1
 Normal termination of Gaussian 16 at Tue Jan  9 18:17:58 2024.
