 Entering Gaussian System, Link 0=g16
 Initial command:
 /opt/g16/l1.exe "/home/jh-li/scratch/g16/Gau-70083.inp" -scrdir="/home/jh-li/scratch/g16/"
 Entering Link 1 = /opt/g16/l1.exe PID=     70099.
  
 Copyright (c) 1988-2019, Gaussian, Inc.  All Rights Reserved.
  
 This is part of the Gaussian(R) 16 program.  It is based on
 the Gaussian(R) 09 system (copyright 2009, Gaussian, Inc.),
 the Gaussian(R) 03 system (copyright 2003, Gaussian, Inc.),
 the Gaussian(R) 98 system (copyright 1998, Gaussian, Inc.),
 the Gaussian(R) 94 system (copyright 1995, Gaussian, Inc.),
 the Gaussian 92(TM) system (copyright 1992, Gaussian, Inc.),
 the Gaussian 90(TM) system (copyright 1990, Gaussian, Inc.),
 the Gaussian 88(TM) system (copyright 1988, Gaussian, Inc.),
 the Gaussian 86(TM) system (copyright 1986, Carnegie Mellon
 University), and the Gaussian 82(TM) system (copyright 1983,
 Carnegie Mellon University). Gaussian is a federally registered
 trademark of Gaussian, Inc.
  
 This software contains proprietary and confidential information,
 including trade secrets, belonging to Gaussian, Inc.
  
 This software is provided under written license and may be
 used, copied, transmitted, or stored only in accord with that
 written license.
  
 The following legend is applicable only to US Government
 contracts under FAR:
  
                    RESTRICTED RIGHTS LEGEND
  
 Use, reproduction and disclosure by the US Government is
 subject to restrictions as set forth in subparagraphs (a)
 and (c) of the Commercial Computer Software - Restricted
 Rights clause in FAR 52.227-19.
  
 Gaussian, Inc.
 340 Quinnipiac St., Bldg. 40, Wallingford CT 06492
  
  
 ---------------------------------------------------------------
 Warning -- This program may not be used in any manner that
 competes with the business of Gaussian, Inc. or will provide
 assistance to any competitor of Gaussian, Inc.  The licensee
 of this program is prohibited from giving any competitor of
 Gaussian, Inc. access to this program.  By using this program,
 the user acknowledges that Gaussian, Inc. is engaged in the
 business of creating and licensing software in the field of
 computational chemistry and represents and warrants to the
 licensee that it is not a competitor of Gaussian, Inc. and that
 it will not use this program in any manner prohibited above.
 ---------------------------------------------------------------
  

 Cite this work as:
 Gaussian 16, Revision C.01,
 M. J. Frisch, G. W. Trucks, H. B. Schlegel, G. E. Scuseria, 
 M. A. Robb, J. R. Cheeseman, G. Scalmani, V. Barone, 
 G. A. Petersson, H. Nakatsuji, X. Li, M. Caricato, A. V. Marenich, 
 J. Bloino, B. G. Janesko, R. Gomperts, B. Mennucci, H. P. Hratchian, 
 J. V. Ortiz, A. F. Izmaylov, J. L. Sonnenberg, D. Williams-Young, 
 F. Ding, F. Lipparini, F. Egidi, J. Goings, B. Peng, A. Petrone, 
 T. Henderson, D. Ranasinghe, V. G. Zakrzewski, J. Gao, N. Rega, 
 G. Zheng, W. Liang, M. Hada, M. Ehara, K. Toyota, R. Fukuda, 
 J. Hasegawa, M. Ishida, T. Nakajima, Y. Honda, O. Kitao, H. Nakai, 
 T. Vreven, K. Throssell, J. A. Montgomery, Jr., J. E. Peralta, 
 F. Ogliaro, M. J. Bearpark, J. J. Heyd, E. N. Brothers, K. N. Kudin, 
 V. N. Staroverov, T. A. Keith, R. Kobayashi, J. Normand, 
 K. Raghavachari, A. P. Rendell, J. C. Burant, S. S. Iyengar, 
 J. Tomasi, M. Cossi, J. M. Millam, M. Klene, C. Adamo, R. Cammi, 
 J. W. Ochterski, R. L. Martin, K. Morokuma, O. Farkas, 
 J. B. Foresman, and D. J. Fox, Gaussian, Inc., Wallingford CT, 2019.
 
 ******************************************
 Gaussian 16:  ES64L-G16RevC.01  3-Jul-2019
                 9-Jan-2024 
 ******************************************
 %nproc=1
 Will use up to    1 processors via shared memory.
 %chk=HCN-ts-opt-freq.chk
 --------------------------------------------------
 #p external="python3 -u ../../src/gmm.py" freq=num
 --------------------------------------------------
 1/10=4,18=10,30=1,38=11/1,6,3;
 2/12=2,17=6,18=5,40=1/2;
 3/11=9,25=1,30=1,41=9900000,43=2,71=1/1;
 4/20=17,22=1,24=3,113=1,114=1/2;
 6/7=2,8=2,9=2,10=2/1;
 7/44=-1/16;
 1/10=4,18=10,30=1,38=10/6(3);
 7/8=1,25=1,44=-1/16;
 1/10=4,18=10,30=1,38=10/3;
 99//99;
 3/11=9,25=1,30=1,41=9900000,43=2,71=1/1;
 4/16=2,20=17,22=1,24=3,113=1,114=1/2;
 6/7=2,8=2,9=2,10=2/1;
 7/7=1,44=-1/16;
 1/10=4,18=10,30=1,38=10/6(-4);
 7/8=1,25=1,44=-1/16;
 1/10=4,18=10,30=1,38=10/3;
 99//99;
 Leave Link    1 at Tue Jan  9 13:00:47 2024, MaxMem=           0 cpu:               0.0 elap:               0.0
 (Enter /opt/g16/l101.exe)
 -------------------
 Title Card Required
 -------------------
 Symbolic Z-matrix:
 Charge =  0 Multiplicity = 1
 C                     0.56314  -0.57635   0. 
 N                    -0.3752    0.35695   0. 
 H                    -0.79524  -1.09345   0. 
 
 ITRead=  0  0  0
 MicOpt= -1 -1 -1
 NAtoms=      3 NQM=        3 NQMF=       0 NMMI=      0 NMMIF=      0
                NMic=       0 NMicF=      0.
                    Isotopes and Nuclear Properties:
 (Nuclear quadrupole moments (NQMom) in fm**2, nuclear magnetic moments (NMagM)
  in nuclear magnetons)

  Atom         1           2           3
 IAtWgt=          12          14           1
 AtmWgt=  12.0000000  14.0030740   1.0078250
 NucSpn=           0           2           1
 AtZEff=  -0.0000000  -0.0000000  -0.0000000
 NQMom=    0.0000000   2.0440000   0.0000000
 NMagM=    0.0000000   0.4037610   2.7928460
 AtZNuc=   6.0000000   7.0000000   1.0000000
 Leave Link  101 at Tue Jan  9 13:00:47 2024, MaxMem=   104857600 cpu:               0.1 elap:               0.1
 (Enter /opt/g16/l106.exe)
 Numerical evaluation of force-constants.
 Nuclear step= 0.001000 Angstroms, electric field step= 0.000333 atomic units, NStep=1.
 Leave Link  106 at Tue Jan  9 13:00:47 2024, MaxMem=   104857600 cpu:               0.0 elap:               0.0
 (Enter /opt/g16/l103.exe)

 GradGradGradGradGradGradGradGradGradGradGradGradGradGradGradGradGradGrad
 Berny optimization.
 Initialization pass.
 Trust Radius=3.00D-01 FncErr=1.00D-07 GrdErr=1.00D-07 EigMax=2.50D+02 EigMin=1.00D-04
 Number of steps in this run=      2 maximum allowed number of steps=      2.
 GradGradGradGradGradGradGradGradGradGradGradGradGradGradGradGradGradGrad

 Leave Link  103 at Tue Jan  9 13:00:47 2024, MaxMem=   104857600 cpu:               0.0 elap:               0.0
 (Enter /opt/g16/l202.exe)
                          Input orientation:                          
 ---------------------------------------------------------------------
 Center     Atomic      Atomic             Coordinates (Angstroms)
 Number     Number       Type             X           Y           Z
 ---------------------------------------------------------------------
      1          6           0        0.563142   -0.576354    0.000000
      2          7           0       -0.375200    0.356947    0.000000
      3          1           0       -0.795242   -1.093454    0.000000
 ---------------------------------------------------------------------
                    Distance matrix (angstroms):
                    1          2          3
     1  C    0.000000
     2  N    1.323457   0.000000
     3  H    1.453479   1.510000   0.000000
 Stoichiometry    CHN
 Framework group  CS[SG(CHN)]
 Deg. of freedom     3
 Full point group                 CS      NOp   2
 Largest Abelian subgroup         CS      NOp   2
 Largest concise Abelian subgroup C1      NOp   1
                         Standard orientation:                         
 ---------------------------------------------------------------------
 Center     Atomic      Atomic             Coordinates (Angstroms)
 Number     Number       Type             X           Y           Z
 ---------------------------------------------------------------------
      1          6           0        0.094611    0.704475    0.000000
      2          7           0        0.094611   -0.618982    0.000000
      3          1           0       -1.229949    0.106027   -0.000000
 ---------------------------------------------------------------------
 Rotational constants (GHZ):         297.2856630          44.5908882          38.7749078
 Leave Link  202 at Tue Jan  9 13:00:47 2024, MaxMem=   104857600 cpu:               0.0 elap:               0.0
 (Enter /opt/g16/l301.exe)
 Standard basis: STO-3G (5D, 7F)
 Ernie: Thresh=  0.10000D-02 Tol=  0.10000D-05 Strict=F.
 There are     9 symmetry adapted cartesian basis functions of A'  symmetry.
 There are     2 symmetry adapted cartesian basis functions of A"  symmetry.
 There are     9 symmetry adapted basis functions of A'  symmetry.
 There are     2 symmetry adapted basis functions of A"  symmetry.
    11 basis functions,    33 primitive gaussians,    11 cartesian basis functions
     7 alpha electrons        7 beta electrons
       nuclear repulsion energy        21.4310725613 Hartrees.
 IExCor=    0 DFT=F Ex=HF Corr=None ExCW=0 ScaHFX=  1.000000
 ScaDFX=  1.000000  1.000000  1.000000  1.000000 ScalE2=  1.000000  1.000000
 IRadAn=      5 IRanWt=     -1 IRanGd=            0 ICorTp=0 IEmpDi=  4
 NAtoms=    3 NActive=    3 NUniq=    3 SFac= 1.00D+00 NAtFMM=   60 NAOKFM=F Big=F
 Integral buffers will be    131072 words long.
 Raffenetti 1 integral format.
 Two-electron integral symmetry is turned on.
 Leave Link  301 at Tue Jan  9 13:00:47 2024, MaxMem=   104857600 cpu:               0.1 elap:               0.1
 (Enter /opt/g16/l402.exe)
 External calculation of energy and first derivatives.
 Running external command "python3 -u ../../src/gmm.py R"
         input file       "/home/jh-li/scratch/g16/Gau-70099.EIn"
         output file      "/home/jh-li/scratch/g16/Gau-70099.EOu"
         message file     "/home/jh-li/scratch/g16/Gau-70099.EMs"
         fchk file        "/home/jh-li/scratch/g16/Gau-70099.EFC"
         mat. el file     "/home/jh-li/scratch/g16/Gau-70099.EUF"
>>> Starting ROHF Calculation...
 Read checkpoint file mol_rohf.chk type G16
 Write formatted file mol_rohf.fchk
>>> ROHF Calculation Done!
>>> Preparing Molpro input file...
>>> Starting Molpro Calculation...
>>> Molpro Calculation Done!
>>> Extracting Molpro output file ...
>>> Done!
 Recovered energy= -93.1044623700     dipole=      0.000000000000      0.000000000000      0.000000000000
 Energy=    -93.1044624     NIter=   0.
 Dipole moment=       0.000000       0.000000       0.000000
 Leave Link  402 at Tue Jan  9 13:01:02 2024, MaxMem=   104857600 cpu:               0.0 elap:              14.7
 (Enter /opt/g16/l601.exe)
 Leave Link  601 at Tue Jan  9 13:01:02 2024, MaxMem=   104857600 cpu:               0.0 elap:               0.0
 (Enter /opt/g16/l716.exe)
 Dipole        = 0.00000000D+00 0.00000000D+00 0.00000000D+00
 ***** Axes restored to original set *****
 -------------------------------------------------------------------
 Center     Atomic                   Forces (Hartrees/Bohr)
 Number     Number              X              Y              Z
 -------------------------------------------------------------------
      1        6          -0.109389835    0.073650918    0.000000000
      2        7           0.073847639   -0.117852468   -0.000000000
      3        1           0.035542195    0.044201550    0.000000000
 -------------------------------------------------------------------
 Cartesian Forces:  Max     0.117852468 RMS     0.066625234
 Z-matrix is all fixed cartesians, so copy forces.
 Leave Link  716 at Tue Jan  9 13:01:02 2024, MaxMem=   104857600 cpu:               0.0 elap:               0.0
 (Enter /opt/g16/l106.exe)
 NDeriv=      9 NFrqRd=  0 NDerD0=      0 MskFDP=       0 MskDFD=       0 MskDF0=       0
 At 1st pt F.D. properties file   721 does not exist.
 At 1st pt F.D. properties file   722 does not exist.
 D2Numr ... symmetry will be used.
 Leave Link  106 at Tue Jan  9 13:01:02 2024, MaxMem=   104857600 cpu:               0.0 elap:               0.0
 (Enter /opt/g16/l301.exe)
 Standard basis: STO-3G (5D, 7F)
 Ernie: Thresh=  0.10000D-02 Tol=  0.10000D-05 Strict=F.
    11 basis functions,    33 primitive gaussians,    11 cartesian basis functions
     7 alpha electrons        7 beta electrons
       nuclear repulsion energy        21.4296989250 Hartrees.
 IExCor=    0 DFT=F Ex=HF Corr=None ExCW=0 ScaHFX=  1.000000
 ScaDFX=  1.000000  1.000000  1.000000  1.000000 ScalE2=  1.000000  1.000000
 IRadAn=      5 IRanWt=     -1 IRanGd=            0 ICorTp=0 IEmpDi=  4
 NAtoms=    3 NActive=    3 NUniq=    3 SFac= 1.00D+00 NAtFMM=   60 NAOKFM=F Big=F
 Integral buffers will be    131072 words long.
 Raffenetti 1 integral format.
 Two-electron integral symmetry is turned off.
 Leave Link  301 at Tue Jan  9 13:01:02 2024, MaxMem=   104857600 cpu:               0.0 elap:               0.0
 (Enter /opt/g16/l402.exe)
 External calculation of energy and first derivatives.
 Running external command "python3 -u ../../src/gmm.py R"
         input file       "/home/jh-li/scratch/g16/Gau-70099.EIn"
         output file      "/home/jh-li/scratch/g16/Gau-70099.EOu"
         message file     "/home/jh-li/scratch/g16/Gau-70099.EMs"
         fchk file        "/home/jh-li/scratch/g16/Gau-70099.EFC"
         mat. el file     "/home/jh-li/scratch/g16/Gau-70099.EUF"
>>> Starting ROHF Calculation...
 Read checkpoint file mol_rohf.chk type G16
 Write formatted file mol_rohf.fchk
>>> ROHF Calculation Done!
>>> Preparing Molpro input file...
>>> Starting Molpro Calculation...
>>> Molpro Calculation Done!
>>> Extracting Molpro output file ...
>>> Done!
 Recovered energy= -93.1044151800     dipole=      0.000000000000      0.000000000000      0.000000000000
 Energy=    -93.1044152     NIter=   0.
 Dipole moment=       0.000000       0.000000       0.000000
 Leave Link  402 at Tue Jan  9 13:01:16 2024, MaxMem=   104857600 cpu:               0.0 elap:              14.4
 (Enter /opt/g16/l601.exe)
 Leave Link  601 at Tue Jan  9 13:01:16 2024, MaxMem=   104857600 cpu:               0.0 elap:               0.0
 (Enter /opt/g16/l716.exe)
 Dipole        = 0.00000000D+00 0.00000000D+00 0.00000000D+00
 -------------------------------------------------------------------
 Center     Atomic                   Forces (Hartrees/Bohr)
 Number     Number              X              Y              Z
 -------------------------------------------------------------------
      1        6          -0.025011990   -0.129432600   -0.000000000
      2        7          -0.031491180    0.135466640   -0.000000000
      3        1           0.056503170   -0.006034040   -0.000000000
 -------------------------------------------------------------------
 Cartesian Forces:  Max     0.135466640 RMS     0.066625254
 Leave Link  716 at Tue Jan  9 13:01:16 2024, MaxMem=   104857600 cpu:               0.0 elap:               0.0
 (Enter /opt/g16/l106.exe)
 NDeriv=      9 NFrqRd=  0 NDerD0=      0 MskFDP=       0 MskDFD=       0 MskDF0=       0
 Re-enter D2Numr:  atom      1 IXYZ=1 step-up   number 1
 Leave Link  106 at Tue Jan  9 13:01:17 2024, MaxMem=   104857600 cpu:               0.1 elap:               0.1
 (Enter /opt/g16/l301.exe)
 Standard basis: STO-3G (5D, 7F)
 Ernie: Thresh=  0.10000D-02 Tol=  0.10000D-05 Strict=F.
    11 basis functions,    33 primitive gaussians,    11 cartesian basis functions
     7 alpha electrons        7 beta electrons
       nuclear repulsion energy        21.4324381520 Hartrees.
 IExCor=    0 DFT=F Ex=HF Corr=None ExCW=0 ScaHFX=  1.000000
 ScaDFX=  1.000000  1.000000  1.000000  1.000000 ScalE2=  1.000000  1.000000
 IRadAn=      5 IRanWt=     -1 IRanGd=            0 ICorTp=0 IEmpDi=  4
 NAtoms=    3 NActive=    3 NUniq=    3 SFac= 1.00D+00 NAtFMM=   60 NAOKFM=F Big=F
 Integral buffers will be    131072 words long.
 Raffenetti 1 integral format.
 Two-electron integral symmetry is turned off.
 Leave Link  301 at Tue Jan  9 13:01:17 2024, MaxMem=   104857600 cpu:               0.0 elap:               0.0
 (Enter /opt/g16/l402.exe)
 External calculation of energy and first derivatives.
 Running external command "python3 -u ../../src/gmm.py R"
         input file       "/home/jh-li/scratch/g16/Gau-70099.EIn"
         output file      "/home/jh-li/scratch/g16/Gau-70099.EOu"
         message file     "/home/jh-li/scratch/g16/Gau-70099.EMs"
         fchk file        "/home/jh-li/scratch/g16/Gau-70099.EFC"
         mat. el file     "/home/jh-li/scratch/g16/Gau-70099.EUF"
>>> Starting ROHF Calculation...
 Read checkpoint file mol_rohf.chk type G16
 Write formatted file mol_rohf.fchk
>>> ROHF Calculation Done!
>>> Preparing Molpro input file...
>>> Starting Molpro Calculation...
>>> Molpro Calculation Done!
>>> Extracting Molpro output file ...
>>> Done!
 Recovered energy= -93.1045093900     dipole=      0.000000000000      0.000000000000      0.000000000000
 Energy=    -93.1045094     NIter=   0.
 Dipole moment=       0.000000       0.000000       0.000000
 Leave Link  402 at Tue Jan  9 13:01:31 2024, MaxMem=   104857600 cpu:               0.0 elap:              14.2
 (Enter /opt/g16/l601.exe)
 Leave Link  601 at Tue Jan  9 13:01:31 2024, MaxMem=   104857600 cpu:               0.0 elap:               0.0
 (Enter /opt/g16/l716.exe)
 Dipole        = 0.00000000D+00 0.00000000D+00 0.00000000D+00
 -------------------------------------------------------------------
 Center     Atomic                   Forces (Hartrees/Bohr)
 Number     Number              X              Y              Z
 -------------------------------------------------------------------
      1        6          -0.024832710   -0.129561830   -0.000000000
      2        7          -0.031470950    0.135470260   -0.000000000
      3        1           0.056303660   -0.005908440   -0.000000000
 -------------------------------------------------------------------
 Cartesian Forces:  Max     0.135470260 RMS     0.066625450
 Leave Link  716 at Tue Jan  9 13:01:31 2024, MaxMem=   104857600 cpu:               0.0 elap:               0.0
 (Enter /opt/g16/l106.exe)
 NDeriv=      9 NFrqRd=  0 NDerD0=      0 MskFDP=       0 MskDFD=       0 MskDF0=       0
 Re-enter D2Numr:  atom      1 IXYZ=1 step-down number 1
 Leave Link  106 at Tue Jan  9 13:01:31 2024, MaxMem=   104857600 cpu:               0.1 elap:               0.1
 (Enter /opt/g16/l301.exe)
 Standard basis: STO-3G (5D, 7F)
 Ernie: Thresh=  0.10000D-02 Tol=  0.10000D-05 Strict=F.
    11 basis functions,    33 primitive gaussians,    11 cartesian basis functions
     7 alpha electrons        7 beta electrons
       nuclear repulsion energy        21.4177739870 Hartrees.
 IExCor=    0 DFT=F Ex=HF Corr=None ExCW=0 ScaHFX=  1.000000
 ScaDFX=  1.000000  1.000000  1.000000  1.000000 ScalE2=  1.000000  1.000000
 IRadAn=      5 IRanWt=     -1 IRanGd=            0 ICorTp=0 IEmpDi=  4
 NAtoms=    3 NActive=    3 NUniq=    3 SFac= 1.00D+00 NAtFMM=   60 NAOKFM=F Big=F
 Integral buffers will be    131072 words long.
 Raffenetti 1 integral format.
 Two-electron integral symmetry is turned off.
 Leave Link  301 at Tue Jan  9 13:01:31 2024, MaxMem=   104857600 cpu:               0.1 elap:               0.0
 (Enter /opt/g16/l402.exe)
 External calculation of energy and first derivatives.
 Running external command "python3 -u ../../src/gmm.py R"
         input file       "/home/jh-li/scratch/g16/Gau-70099.EIn"
         output file      "/home/jh-li/scratch/g16/Gau-70099.EOu"
         message file     "/home/jh-li/scratch/g16/Gau-70099.EMs"
         fchk file        "/home/jh-li/scratch/g16/Gau-70099.EFC"
         mat. el file     "/home/jh-li/scratch/g16/Gau-70099.EUF"
>>> Starting ROHF Calculation...
 Read checkpoint file mol_rohf.chk type G16
 Write formatted file mol_rohf.fchk
>>> ROHF Calculation Done!
>>> Preparing Molpro input file...
>>> Starting Molpro Calculation...
>>> Molpro Calculation Done!
>>> Extracting Molpro output file ...
>>> Done!
 Recovered energy= -93.1042168300     dipole=      0.000000000000      0.000000000000      0.000000000000
 Energy=    -93.1042168     NIter=   0.
 Dipole moment=       0.000000       0.000000       0.000000
 Leave Link  402 at Tue Jan  9 13:01:45 2024, MaxMem=   104857600 cpu:               0.0 elap:              14.4
 (Enter /opt/g16/l601.exe)
 Leave Link  601 at Tue Jan  9 13:01:45 2024, MaxMem=   104857600 cpu:               0.0 elap:               0.0
 (Enter /opt/g16/l716.exe)
 Dipole        = 0.00000000D+00 0.00000000D+00 0.00000000D+00
 -------------------------------------------------------------------
 Center     Atomic                   Forces (Hartrees/Bohr)
 Number     Number              X              Y              Z
 -------------------------------------------------------------------
      1        6          -0.024858080   -0.130249210   -0.000000000
      2        7          -0.031549110    0.136268010   -0.000000000
      3        1           0.056407190   -0.006018800   -0.000000000
 -------------------------------------------------------------------
 Cartesian Forces:  Max     0.136268010 RMS     0.066970221
 Leave Link  716 at Tue Jan  9 13:01:45 2024, MaxMem=   104857600 cpu:               0.0 elap:               0.0
 (Enter /opt/g16/l106.exe)
 NDeriv=      9 NFrqRd=  0 NDerD0=      0 MskFDP=       0 MskDFD=       0 MskDF0=       0
 Re-enter D2Numr:  atom      1 IXYZ=2 step-up   number 1
 Leave Link  106 at Tue Jan  9 13:01:46 2024, MaxMem=   104857600 cpu:               0.1 elap:               0.1
 (Enter /opt/g16/l301.exe)
 Standard basis: STO-3G (5D, 7F)
 Ernie: Thresh=  0.10000D-02 Tol=  0.10000D-05 Strict=F.
    11 basis functions,    33 primitive gaussians,    11 cartesian basis functions
     7 alpha electrons        7 beta electrons
       nuclear repulsion energy        21.4443898032 Hartrees.
 IExCor=    0 DFT=F Ex=HF Corr=None ExCW=0 ScaHFX=  1.000000
 ScaDFX=  1.000000  1.000000  1.000000  1.000000 ScalE2=  1.000000  1.000000
 IRadAn=      5 IRanWt=     -1 IRanGd=            0 ICorTp=0 IEmpDi=  4
 NAtoms=    3 NActive=    3 NUniq=    3 SFac= 1.00D+00 NAtFMM=   60 NAOKFM=F Big=F
 Integral buffers will be    131072 words long.
 Raffenetti 1 integral format.
 Two-electron integral symmetry is turned off.
 Leave Link  301 at Tue Jan  9 13:01:46 2024, MaxMem=   104857600 cpu:               0.0 elap:               0.0
 (Enter /opt/g16/l402.exe)
 External calculation of energy and first derivatives.
 Running external command "python3 -u ../../src/gmm.py R"
         input file       "/home/jh-li/scratch/g16/Gau-70099.EIn"
         output file      "/home/jh-li/scratch/g16/Gau-70099.EOu"
         message file     "/home/jh-li/scratch/g16/Gau-70099.EMs"
         fchk file        "/home/jh-li/scratch/g16/Gau-70099.EFC"
         mat. el file     "/home/jh-li/scratch/g16/Gau-70099.EUF"
>>> Starting ROHF Calculation...
 Read checkpoint file mol_rohf.chk type G16
 Write formatted file mol_rohf.fchk
>>> ROHF Calculation Done!
>>> Preparing Molpro input file...
>>> Starting Molpro Calculation...
>>> Molpro Calculation Done!
>>> Extracting Molpro output file ...
>>> Done!
 Recovered energy= -93.1047064800     dipole=      0.000000000000      0.000000000000      0.000000000000
 Energy=    -93.1047065     NIter=   0.
 Dipole moment=       0.000000       0.000000       0.000000
 Leave Link  402 at Tue Jan  9 13:01:59 2024, MaxMem=   104857600 cpu:               0.0 elap:              13.8
 (Enter /opt/g16/l601.exe)
 Leave Link  601 at Tue Jan  9 13:01:59 2024, MaxMem=   104857600 cpu:               0.0 elap:               0.0
 (Enter /opt/g16/l716.exe)
 Dipole        = 0.00000000D+00 0.00000000D+00 0.00000000D+00
 -------------------------------------------------------------------
 Center     Atomic                   Forces (Hartrees/Bohr)
 Number     Number              X              Y              Z
 -------------------------------------------------------------------
      1        6          -0.024987290   -0.128738050   -0.000000000
      2        7          -0.031412830    0.134661510   -0.000000000
      3        1           0.056400120   -0.005923460   -0.000000000
 -------------------------------------------------------------------
 Cartesian Forces:  Max     0.134661510 RMS     0.066277530
 Leave Link  716 at Tue Jan  9 13:01:59 2024, MaxMem=   104857600 cpu:               0.0 elap:               0.0
 (Enter /opt/g16/l106.exe)
 NDeriv=      9 NFrqRd=  0 NDerD0=      0 MskFDP=       0 MskDFD=       0 MskDF0=       0
 Re-enter D2Numr:  atom      1 IXYZ=2 step-down number 1
 Leave Link  106 at Tue Jan  9 13:01:59 2024, MaxMem=   104857600 cpu:               0.0 elap:               0.1
 (Enter /opt/g16/l301.exe)
 Standard basis: STO-3G (5D, 7F)
 Ernie: Thresh=  0.10000D-02 Tol=  0.10000D-05 Strict=F.
    11 basis functions,    33 primitive gaussians,    11 cartesian basis functions
     7 alpha electrons        7 beta electrons
       nuclear repulsion energy        21.4310672504 Hartrees.
 IExCor=    0 DFT=F Ex=HF Corr=None ExCW=0 ScaHFX=  1.000000
 ScaDFX=  1.000000  1.000000  1.000000  1.000000 ScalE2=  1.000000  1.000000
 IRadAn=      5 IRanWt=     -1 IRanGd=            0 ICorTp=0 IEmpDi=  4
 NAtoms=    3 NActive=    3 NUniq=    3 SFac= 1.00D+00 NAtFMM=   60 NAOKFM=F Big=F
 Integral buffers will be    131072 words long.
 Raffenetti 1 integral format.
 Two-electron integral symmetry is turned off.
 Leave Link  301 at Tue Jan  9 13:02:00 2024, MaxMem=   104857600 cpu:               0.0 elap:               0.0
 (Enter /opt/g16/l402.exe)
 External calculation of energy and first derivatives.
 Running external command "python3 -u ../../src/gmm.py R"
         input file       "/home/jh-li/scratch/g16/Gau-70099.EIn"
         output file      "/home/jh-li/scratch/g16/Gau-70099.EOu"
         message file     "/home/jh-li/scratch/g16/Gau-70099.EMs"
         fchk file        "/home/jh-li/scratch/g16/Gau-70099.EFC"
         mat. el file     "/home/jh-li/scratch/g16/Gau-70099.EUF"
>>> Starting ROHF Calculation...
 Read checkpoint file mol_rohf.chk type G16
 Write formatted file mol_rohf.fchk
>>> ROHF Calculation Done!
>>> Preparing Molpro input file...
>>> Starting Molpro Calculation...
>>> Molpro Calculation Done!
>>> Extracting Molpro output file ...
>>> Done!
 Recovered energy= -93.1044622700     dipole=      0.000000000000      0.000000000000      0.000000000000
 Energy=    -93.1044623     NIter=   0.
 Dipole moment=       0.000000       0.000000       0.000000
 Leave Link  402 at Tue Jan  9 13:02:14 2024, MaxMem=   104857600 cpu:               0.0 elap:              14.3
 (Enter /opt/g16/l601.exe)
 Leave Link  601 at Tue Jan  9 13:02:14 2024, MaxMem=   104857600 cpu:               0.0 elap:               0.0
 (Enter /opt/g16/l716.exe)
 Dipole        = 0.00000000D+00 0.00000000D+00 0.00000000D+00
 -------------------------------------------------------------------
 Center     Atomic                   Forces (Hartrees/Bohr)
 Number     Number              X              Y              Z
 -------------------------------------------------------------------
      1        6          -0.024922530   -0.129497170   -0.000108155
      2        7          -0.031481130    0.135468410    0.000089339
      3        1           0.056403660   -0.005971240    0.000018816
 -------------------------------------------------------------------
 Cartesian Forces:  Max     0.135468410 RMS     0.066625362
 Leave Link  716 at Tue Jan  9 13:02:14 2024, MaxMem=   104857600 cpu:               0.0 elap:               0.0
 (Enter /opt/g16/l106.exe)
 NDeriv=      9 NFrqRd=  0 NDerD0=      0 MskFDP=       0 MskDFD=       0 MskDF0=       0
 Re-enter D2Numr:  atom      1 IXYZ=3 step-up   number 1
 Skip step-back as it is equivalent to step-up.
 Finish atom      1 at Tue Jan  9 13:02:14 2024
 Leave Link  106 at Tue Jan  9 13:02:14 2024, MaxMem=   104857600 cpu:               0.1 elap:               0.1
 (Enter /opt/g16/l301.exe)
 Standard basis: STO-3G (5D, 7F)
 Ernie: Thresh=  0.10000D-02 Tol=  0.10000D-05 Strict=F.
    11 basis functions,    33 primitive gaussians,    11 cartesian basis functions
     7 alpha electrons        7 beta electrons
       nuclear repulsion energy        21.4296433876 Hartrees.
 IExCor=    0 DFT=F Ex=HF Corr=None ExCW=0 ScaHFX=  1.000000
 ScaDFX=  1.000000  1.000000  1.000000  1.000000 ScalE2=  1.000000  1.000000
 IRadAn=      5 IRanWt=     -1 IRanGd=            0 ICorTp=0 IEmpDi=  4
 NAtoms=    3 NActive=    3 NUniq=    3 SFac= 1.00D+00 NAtFMM=   60 NAOKFM=F Big=F
 Integral buffers will be    131072 words long.
 Raffenetti 1 integral format.
 Two-electron integral symmetry is turned off.
 Leave Link  301 at Tue Jan  9 13:02:14 2024, MaxMem=   104857600 cpu:               0.0 elap:               0.0
 (Enter /opt/g16/l402.exe)
 External calculation of energy and first derivatives.
 Running external command "python3 -u ../../src/gmm.py R"
         input file       "/home/jh-li/scratch/g16/Gau-70099.EIn"
         output file      "/home/jh-li/scratch/g16/Gau-70099.EOu"
         message file     "/home/jh-li/scratch/g16/Gau-70099.EMs"
         fchk file        "/home/jh-li/scratch/g16/Gau-70099.EFC"
         mat. el file     "/home/jh-li/scratch/g16/Gau-70099.EUF"
>>> Starting ROHF Calculation...
 Read checkpoint file mol_rohf.chk type G16
 Write formatted file mol_rohf.fchk
>>> ROHF Calculation Done!
>>> Preparing Molpro input file...
>>> Starting Molpro Calculation...
>>> Molpro Calculation Done!
>>> Extracting Molpro output file ...
>>> Done!
 Recovered energy= -93.1044028400     dipole=      0.000000000000      0.000000000000      0.000000000000
 Energy=    -93.1044028     NIter=   0.
 Dipole moment=       0.000000       0.000000       0.000000
 Leave Link  402 at Tue Jan  9 13:02:28 2024, MaxMem=   104857600 cpu:               0.0 elap:              14.2
 (Enter /opt/g16/l601.exe)
 Leave Link  601 at Tue Jan  9 13:02:28 2024, MaxMem=   104857600 cpu:               0.0 elap:               0.0
 (Enter /opt/g16/l716.exe)
 Dipole        = 0.00000000D+00 0.00000000D+00 0.00000000D+00
 -------------------------------------------------------------------
 Center     Atomic                   Forces (Hartrees/Bohr)
 Number     Number              X              Y              Z
 -------------------------------------------------------------------
      1        6          -0.024932640   -0.129565440   -0.000000000
      2        7          -0.031509270    0.135445250    0.000000000
      3        1           0.056441910   -0.005879810   -0.000000000
 -------------------------------------------------------------------
 Cartesian Forces:  Max     0.135445250 RMS     0.066639454
 Leave Link  716 at Tue Jan  9 13:02:28 2024, MaxMem=   104857600 cpu:               0.0 elap:               0.0
 (Enter /opt/g16/l106.exe)
 NDeriv=      9 NFrqRd=  0 NDerD0=      0 MskFDP=       0 MskDFD=       0 MskDF0=       0
 Re-enter D2Numr:  atom      2 IXYZ=1 step-up   number 1
 Leave Link  106 at Tue Jan  9 13:02:28 2024, MaxMem=   104857600 cpu:               0.1 elap:               0.1
 (Enter /opt/g16/l301.exe)
 Standard basis: STO-3G (5D, 7F)
 Ernie: Thresh=  0.10000D-02 Tol=  0.10000D-05 Strict=F.
    11 basis functions,    33 primitive gaussians,    11 cartesian basis functions
     7 alpha electrons        7 beta electrons
       nuclear repulsion energy        21.4324935549 Hartrees.
 IExCor=    0 DFT=F Ex=HF Corr=None ExCW=0 ScaHFX=  1.000000
 ScaDFX=  1.000000  1.000000  1.000000  1.000000 ScalE2=  1.000000  1.000000
 IRadAn=      5 IRanWt=     -1 IRanGd=            0 ICorTp=0 IEmpDi=  4
 NAtoms=    3 NActive=    3 NUniq=    3 SFac= 1.00D+00 NAtFMM=   60 NAOKFM=F Big=F
 Integral buffers will be    131072 words long.
 Raffenetti 1 integral format.
 Two-electron integral symmetry is turned off.
 Leave Link  301 at Tue Jan  9 13:02:28 2024, MaxMem=   104857600 cpu:               0.0 elap:               0.0
 (Enter /opt/g16/l402.exe)
 External calculation of energy and first derivatives.
 Running external command "python3 -u ../../src/gmm.py R"
         input file       "/home/jh-li/scratch/g16/Gau-70099.EIn"
         output file      "/home/jh-li/scratch/g16/Gau-70099.EOu"
         message file     "/home/jh-li/scratch/g16/Gau-70099.EMs"
         fchk file        "/home/jh-li/scratch/g16/Gau-70099.EFC"
         mat. el file     "/home/jh-li/scratch/g16/Gau-70099.EUF"
>>> Starting ROHF Calculation...
 Read checkpoint file mol_rohf.chk type G16
 Write formatted file mol_rohf.fchk
>>> ROHF Calculation Done!
>>> Preparing Molpro input file...
>>> Starting Molpro Calculation...
>>> Molpro Calculation Done!
>>> Extracting Molpro output file ...
>>> Done!
 Recovered energy= -93.1045218400     dipole=      0.000000000000      0.000000000000      0.000000000000
 Energy=    -93.1045218     NIter=   0.
 Dipole moment=       0.000000       0.000000       0.000000
 Leave Link  402 at Tue Jan  9 13:02:42 2024, MaxMem=   104857600 cpu:               0.0 elap:              13.9
 (Enter /opt/g16/l601.exe)
 Leave Link  601 at Tue Jan  9 13:02:42 2024, MaxMem=   104857600 cpu:               0.0 elap:               0.0
 (Enter /opt/g16/l716.exe)
 Dipole        = 0.00000000D+00 0.00000000D+00 0.00000000D+00
 -------------------------------------------------------------------
 Center     Atomic                   Forces (Hartrees/Bohr)
 Number     Number              X              Y              Z
 -------------------------------------------------------------------
      1        6          -0.024912440   -0.129428800   -0.000000000
      2        7          -0.031452720    0.135491330    0.000000000
      3        1           0.056365160   -0.006062540   -0.000000000
 -------------------------------------------------------------------
 Cartesian Forces:  Max     0.135491330 RMS     0.066611147
 Leave Link  716 at Tue Jan  9 13:02:42 2024, MaxMem=   104857600 cpu:               0.0 elap:               0.0
 (Enter /opt/g16/l106.exe)
 NDeriv=      9 NFrqRd=  0 NDerD0=      0 MskFDP=       0 MskDFD=       0 MskDF0=       0
 Re-enter D2Numr:  atom      2 IXYZ=1 step-down number 1
 Leave Link  106 at Tue Jan  9 13:02:42 2024, MaxMem=   104857600 cpu:               0.1 elap:               0.1
 (Enter /opt/g16/l301.exe)
 Standard basis: STO-3G (5D, 7F)
 Ernie: Thresh=  0.10000D-02 Tol=  0.10000D-05 Strict=F.
    11 basis functions,    33 primitive gaussians,    11 cartesian basis functions
     7 alpha electrons        7 beta electrons
       nuclear repulsion energy        21.4445511194 Hartrees.
 IExCor=    0 DFT=F Ex=HF Corr=None ExCW=0 ScaHFX=  1.000000
 ScaDFX=  1.000000  1.000000  1.000000  1.000000 ScalE2=  1.000000  1.000000
 IRadAn=      5 IRanWt=     -1 IRanGd=            0 ICorTp=0 IEmpDi=  4
 NAtoms=    3 NActive=    3 NUniq=    3 SFac= 1.00D+00 NAtFMM=   60 NAOKFM=F Big=F
 Integral buffers will be    131072 words long.
 Raffenetti 1 integral format.
 Two-electron integral symmetry is turned off.
 Leave Link  301 at Tue Jan  9 13:02:42 2024, MaxMem=   104857600 cpu:               0.0 elap:               0.0
 (Enter /opt/g16/l402.exe)
 External calculation of energy and first derivatives.
 Running external command "python3 -u ../../src/gmm.py R"
         input file       "/home/jh-li/scratch/g16/Gau-70099.EIn"
         output file      "/home/jh-li/scratch/g16/Gau-70099.EOu"
         message file     "/home/jh-li/scratch/g16/Gau-70099.EMs"
         fchk file        "/home/jh-li/scratch/g16/Gau-70099.EFC"
         mat. el file     "/home/jh-li/scratch/g16/Gau-70099.EUF"
>>> Starting ROHF Calculation...
 Read checkpoint file mol_rohf.chk type G16
 Write formatted file mol_rohf.fchk
>>> ROHF Calculation Done!
>>> Preparing Molpro input file...
>>> Starting Molpro Calculation...
>>> Molpro Calculation Done!
>>> Extracting Molpro output file ...
>>> Done!
 Recovered energy= -93.1047177100     dipole=      0.000000000000      0.000000000000      0.000000000000
 Energy=    -93.1047177     NIter=   0.
 Dipole moment=       0.000000       0.000000       0.000000
 Leave Link  402 at Tue Jan  9 13:02:57 2024, MaxMem=   104857600 cpu:               0.0 elap:              15.0
 (Enter /opt/g16/l601.exe)
 Leave Link  601 at Tue Jan  9 13:02:57 2024, MaxMem=   104857600 cpu:               0.0 elap:               0.0
 (Enter /opt/g16/l716.exe)
 Dipole        = 0.00000000D+00 0.00000000D+00 0.00000000D+00
 -------------------------------------------------------------------
 Center     Atomic                   Forces (Hartrees/Bohr)
 Number     Number              X              Y              Z
 -------------------------------------------------------------------
      1        6          -0.024924420   -0.128690270   -0.000000000
      2        7          -0.031504270    0.134649530    0.000000000
      3        1           0.056428690   -0.005959270   -0.000000000
 -------------------------------------------------------------------
 Cartesian Forces:  Max     0.134649530 RMS     0.066269766
 Leave Link  716 at Tue Jan  9 13:02:57 2024, MaxMem=   104857600 cpu:               0.0 elap:               0.0
 (Enter /opt/g16/l106.exe)
 NDeriv=      9 NFrqRd=  0 NDerD0=      0 MskFDP=       0 MskDFD=       0 MskDF0=       0
 Re-enter D2Numr:  atom      2 IXYZ=2 step-up   number 1
 Leave Link  106 at Tue Jan  9 13:02:58 2024, MaxMem=   104857600 cpu:               0.1 elap:               0.1
 (Enter /opt/g16/l301.exe)
 Standard basis: STO-3G (5D, 7F)
 Ernie: Thresh=  0.10000D-02 Tol=  0.10000D-05 Strict=F.
    11 basis functions,    33 primitive gaussians,    11 cartesian basis functions
     7 alpha electrons        7 beta electrons
       nuclear repulsion energy        21.4176128472 Hartrees.
 IExCor=    0 DFT=F Ex=HF Corr=None ExCW=0 ScaHFX=  1.000000
 ScaDFX=  1.000000  1.000000  1.000000  1.000000 ScalE2=  1.000000  1.000000
 IRadAn=      5 IRanWt=     -1 IRanGd=            0 ICorTp=0 IEmpDi=  4
 NAtoms=    3 NActive=    3 NUniq=    3 SFac= 1.00D+00 NAtFMM=   60 NAOKFM=F Big=F
 Integral buffers will be    131072 words long.
 Raffenetti 1 integral format.
 Two-electron integral symmetry is turned off.
 Leave Link  301 at Tue Jan  9 13:02:58 2024, MaxMem=   104857600 cpu:               0.1 elap:               0.0
 (Enter /opt/g16/l402.exe)
 External calculation of energy and first derivatives.
 Running external command "python3 -u ../../src/gmm.py R"
         input file       "/home/jh-li/scratch/g16/Gau-70099.EIn"
         output file      "/home/jh-li/scratch/g16/Gau-70099.EOu"
         message file     "/home/jh-li/scratch/g16/Gau-70099.EMs"
         fchk file        "/home/jh-li/scratch/g16/Gau-70099.EFC"
         mat. el file     "/home/jh-li/scratch/g16/Gau-70099.EUF"
>>> Starting ROHF Calculation...
 Read checkpoint file mol_rohf.chk type G16
 Write formatted file mol_rohf.fchk
>>> ROHF Calculation Done!
>>> Preparing Molpro input file...
>>> Starting Molpro Calculation...
>>> Molpro Calculation Done!
>>> Extracting Molpro output file ...
>>> Done!
 Recovered energy= -93.1042054900     dipole=      0.000000000000      0.000000000000      0.000000000000
 Energy=    -93.1042055     NIter=   0.
 Dipole moment=       0.000000       0.000000       0.000000
 Leave Link  402 at Tue Jan  9 13:03:12 2024, MaxMem=   104857600 cpu:               0.0 elap:              14.5
 (Enter /opt/g16/l601.exe)
 Leave Link  601 at Tue Jan  9 13:03:12 2024, MaxMem=   104857600 cpu:               0.0 elap:               0.0
 (Enter /opt/g16/l716.exe)
 Dipole        = 0.00000000D+00 0.00000000D+00 0.00000000D+00
 -------------------------------------------------------------------
 Center     Atomic                   Forces (Hartrees/Bohr)
 Number     Number              X              Y              Z
 -------------------------------------------------------------------
      1        6          -0.024920790   -0.130296770   -0.000000000
      2        7          -0.031457820    0.136279790    0.000000000
      3        1           0.056378620   -0.005983020   -0.000000000
 -------------------------------------------------------------------
 Cartesian Forces:  Max     0.136279790 RMS     0.066977952
 Leave Link  716 at Tue Jan  9 13:03:12 2024, MaxMem=   104857600 cpu:               0.0 elap:               0.0
 (Enter /opt/g16/l106.exe)
 NDeriv=      9 NFrqRd=  0 NDerD0=      0 MskFDP=       0 MskDFD=       0 MskDF0=       0
 Re-enter D2Numr:  atom      2 IXYZ=2 step-down number 1
 Leave Link  106 at Tue Jan  9 13:03:12 2024, MaxMem=   104857600 cpu:               0.1 elap:               0.1
 (Enter /opt/g16/l301.exe)
 Standard basis: STO-3G (5D, 7F)
 Ernie: Thresh=  0.10000D-02 Tol=  0.10000D-05 Strict=F.
    11 basis functions,    33 primitive gaussians,    11 cartesian basis functions
     7 alpha electrons        7 beta electrons
       nuclear repulsion energy        21.4310672295 Hartrees.
 IExCor=    0 DFT=F Ex=HF Corr=None ExCW=0 ScaHFX=  1.000000
 ScaDFX=  1.000000  1.000000  1.000000  1.000000 ScalE2=  1.000000  1.000000
 IRadAn=      5 IRanWt=     -1 IRanGd=            0 ICorTp=0 IEmpDi=  4
 NAtoms=    3 NActive=    3 NUniq=    3 SFac= 1.00D+00 NAtFMM=   60 NAOKFM=F Big=F
 Integral buffers will be    131072 words long.
 Raffenetti 1 integral format.
 Two-electron integral symmetry is turned off.
 Leave Link  301 at Tue Jan  9 13:03:12 2024, MaxMem=   104857600 cpu:               0.0 elap:               0.0
 (Enter /opt/g16/l402.exe)
 External calculation of energy and first derivatives.
 Running external command "python3 -u ../../src/gmm.py R"
         input file       "/home/jh-li/scratch/g16/Gau-70099.EIn"
         output file      "/home/jh-li/scratch/g16/Gau-70099.EOu"
         message file     "/home/jh-li/scratch/g16/Gau-70099.EMs"
         fchk file        "/home/jh-li/scratch/g16/Gau-70099.EFC"
         mat. el file     "/home/jh-li/scratch/g16/Gau-70099.EUF"
>>> Starting ROHF Calculation...
 Read checkpoint file mol_rohf.chk type G16
 Write formatted file mol_rohf.fchk
>>> ROHF Calculation Done!
>>> Preparing Molpro input file...
>>> Starting Molpro Calculation...
>>> Molpro Calculation Done!
>>> Extracting Molpro output file ...
>>> Done!
 Recovered energy= -93.1044622600     dipole=      0.000000000000      0.000000000000      0.000000000000
 Energy=    -93.1044623     NIter=   0.
 Dipole moment=       0.000000       0.000000       0.000000
 Leave Link  402 at Tue Jan  9 13:03:26 2024, MaxMem=   104857600 cpu:               0.0 elap:              14.2
 (Enter /opt/g16/l601.exe)
 Leave Link  601 at Tue Jan  9 13:03:26 2024, MaxMem=   104857600 cpu:               0.0 elap:               0.0
 (Enter /opt/g16/l716.exe)
 Dipole        = 0.00000000D+00 0.00000000D+00 0.00000000D+00
 -------------------------------------------------------------------
 Center     Atomic                   Forces (Hartrees/Bohr)
 Number     Number              X              Y              Z
 -------------------------------------------------------------------
      1        6          -0.024922570   -0.129497220    0.000089339
      2        7          -0.031481060    0.135468410   -0.000113107
      3        1           0.056403630   -0.005971190    0.000023767
 -------------------------------------------------------------------
 Cartesian Forces:  Max     0.135468410 RMS     0.066625369
 Leave Link  716 at Tue Jan  9 13:03:27 2024, MaxMem=   104857600 cpu:               0.0 elap:               0.0
 (Enter /opt/g16/l106.exe)
 NDeriv=      9 NFrqRd=  0 NDerD0=      0 MskFDP=       0 MskDFD=       0 MskDF0=       0
 Re-enter D2Numr:  atom      2 IXYZ=3 step-up   number 1
 Skip step-back as it is equivalent to step-up.
 Finish atom      2 at Tue Jan  9 13:03:27 2024
 Leave Link  106 at Tue Jan  9 13:03:27 2024, MaxMem=   104857600 cpu:               0.1 elap:               0.1
 (Enter /opt/g16/l301.exe)
 Standard basis: STO-3G (5D, 7F)
 Ernie: Thresh=  0.10000D-02 Tol=  0.10000D-05 Strict=F.
    11 basis functions,    33 primitive gaussians,    11 cartesian basis functions
     7 alpha electrons        7 beta electrons
       nuclear repulsion energy        21.4338687335 Hartrees.
 IExCor=    0 DFT=F Ex=HF Corr=None ExCW=0 ScaHFX=  1.000000
 ScaDFX=  1.000000  1.000000  1.000000  1.000000 ScalE2=  1.000000  1.000000
 IRadAn=      5 IRanWt=     -1 IRanGd=            0 ICorTp=0 IEmpDi=  4
 NAtoms=    3 NActive=    3 NUniq=    3 SFac= 1.00D+00 NAtFMM=   60 NAOKFM=F Big=F
 Integral buffers will be    131072 words long.
 Raffenetti 1 integral format.
 Two-electron integral symmetry is turned off.
 Leave Link  301 at Tue Jan  9 13:03:27 2024, MaxMem=   104857600 cpu:               0.0 elap:               0.0
 (Enter /opt/g16/l402.exe)
 External calculation of energy and first derivatives.
 Running external command "python3 -u ../../src/gmm.py R"
         input file       "/home/jh-li/scratch/g16/Gau-70099.EIn"
         output file      "/home/jh-li/scratch/g16/Gau-70099.EOu"
         message file     "/home/jh-li/scratch/g16/Gau-70099.EMs"
         fchk file        "/home/jh-li/scratch/g16/Gau-70099.EFC"
         mat. el file     "/home/jh-li/scratch/g16/Gau-70099.EUF"
>>> Starting ROHF Calculation...
 Read checkpoint file mol_rohf.chk type G16
 Write formatted file mol_rohf.fchk
>>> ROHF Calculation Done!
>>> Preparing Molpro input file...
>>> Starting Molpro Calculation...
>>> Molpro Calculation Done!
>>> Extracting Molpro output file ...
>>> Done!
 Recovered energy= -93.1045688400     dipole=      0.000000000000      0.000000000000      0.000000000000
 Energy=    -93.1045688     NIter=   0.
 Dipole moment=       0.000000       0.000000       0.000000
 Leave Link  402 at Tue Jan  9 13:03:41 2024, MaxMem=   104857600 cpu:               0.0 elap:              14.3
 (Enter /opt/g16/l601.exe)
 Leave Link  601 at Tue Jan  9 13:03:41 2024, MaxMem=   104857600 cpu:               0.0 elap:               0.0
 (Enter /opt/g16/l716.exe)
 Dipole        = 0.00000000D+00 0.00000000D+00 0.00000000D+00
 -------------------------------------------------------------------
 Center     Atomic                   Forces (Hartrees/Bohr)
 Number     Number              X              Y              Z
 -------------------------------------------------------------------
      1        6          -0.024822560   -0.129493310   -0.000000000
      2        7          -0.031442570    0.135493140   -0.000000000
      3        1           0.056265130   -0.005999830   -0.000000000
 -------------------------------------------------------------------
 Cartesian Forces:  Max     0.135493140 RMS     0.066611198
 Leave Link  716 at Tue Jan  9 13:03:41 2024, MaxMem=   104857600 cpu:               0.0 elap:               0.0
 (Enter /opt/g16/l106.exe)
 NDeriv=      9 NFrqRd=  0 NDerD0=      0 MskFDP=       0 MskDFD=       0 MskDF0=       0
 Re-enter D2Numr:  atom      3 IXYZ=1 step-up   number 1
 Leave Link  106 at Tue Jan  9 13:03:41 2024, MaxMem=   104857600 cpu:               0.1 elap:               0.1
 (Enter /opt/g16/l301.exe)
 Standard basis: STO-3G (5D, 7F)
 Ernie: Thresh=  0.10000D-02 Tol=  0.10000D-05 Strict=F.
    11 basis functions,    33 primitive gaussians,    11 cartesian basis functions
     7 alpha electrons        7 beta electrons
       nuclear repulsion energy        21.4282793390 Hartrees.
 IExCor=    0 DFT=F Ex=HF Corr=None ExCW=0 ScaHFX=  1.000000
 ScaDFX=  1.000000  1.000000  1.000000  1.000000 ScalE2=  1.000000  1.000000
 IRadAn=      5 IRanWt=     -1 IRanGd=            0 ICorTp=0 IEmpDi=  4
 NAtoms=    3 NActive=    3 NUniq=    3 SFac= 1.00D+00 NAtFMM=   60 NAOKFM=F Big=F
 Integral buffers will be    131072 words long.
 Raffenetti 1 integral format.
 Two-electron integral symmetry is turned off.
 Leave Link  301 at Tue Jan  9 13:03:41 2024, MaxMem=   104857600 cpu:               0.0 elap:               0.0
 (Enter /opt/g16/l402.exe)
 External calculation of energy and first derivatives.
 Running external command "python3 -u ../../src/gmm.py R"
         input file       "/home/jh-li/scratch/g16/Gau-70099.EIn"
         output file      "/home/jh-li/scratch/g16/Gau-70099.EOu"
         message file     "/home/jh-li/scratch/g16/Gau-70099.EMs"
         fchk file        "/home/jh-li/scratch/g16/Gau-70099.EFC"
         mat. el file     "/home/jh-li/scratch/g16/Gau-70099.EUF"
>>> Starting ROHF Calculation...
 Read checkpoint file mol_rohf.chk type G16
 Write formatted file mol_rohf.fchk
>>> ROHF Calculation Done!
>>> Preparing Molpro input file...
>>> Starting Molpro Calculation...
>>> Molpro Calculation Done!
>>> Extracting Molpro output file ...
>>> Done!
 Recovered energy= -93.1043556400     dipole=      0.000000000000      0.000000000000      0.000000000000
 Energy=    -93.1043556     NIter=   0.
 Dipole moment=       0.000000       0.000000       0.000000
 Leave Link  402 at Tue Jan  9 13:03:55 2024, MaxMem=   104857600 cpu:               0.0 elap:              14.3
 (Enter /opt/g16/l601.exe)
 Leave Link  601 at Tue Jan  9 13:03:56 2024, MaxMem=   104857600 cpu:               0.0 elap:               0.0
 (Enter /opt/g16/l716.exe)
 Dipole        = 0.00000000D+00 0.00000000D+00 0.00000000D+00
 -------------------------------------------------------------------
 Center     Atomic                   Forces (Hartrees/Bohr)
 Number     Number              X              Y              Z
 -------------------------------------------------------------------
      1        6          -0.025022040   -0.129500350   -0.000000000
      2        7          -0.031519330    0.135443060   -0.000000000
      3        1           0.056541370   -0.005942700   -0.000000000
 -------------------------------------------------------------------
 Cartesian Forces:  Max     0.135443060 RMS     0.066639141
 Leave Link  716 at Tue Jan  9 13:03:56 2024, MaxMem=   104857600 cpu:               0.0 elap:               0.0
 (Enter /opt/g16/l106.exe)
 NDeriv=      9 NFrqRd=  0 NDerD0=      0 MskFDP=       0 MskDFD=       0 MskDF0=       0
 Re-enter D2Numr:  atom      3 IXYZ=1 step-down number 1
 Leave Link  106 at Tue Jan  9 13:03:56 2024, MaxMem=   104857600 cpu:               0.1 elap:               0.1
 (Enter /opt/g16/l301.exe)
 Standard basis: STO-3G (5D, 7F)
 Ernie: Thresh=  0.10000D-02 Tol=  0.10000D-05 Strict=F.
    11 basis functions,    33 primitive gaussians,    11 cartesian basis functions
     7 alpha electrons        7 beta electrons
       nuclear repulsion energy        21.4309109133 Hartrees.
 IExCor=    0 DFT=F Ex=HF Corr=None ExCW=0 ScaHFX=  1.000000
 ScaDFX=  1.000000  1.000000  1.000000  1.000000 ScalE2=  1.000000  1.000000
 IRadAn=      5 IRanWt=     -1 IRanGd=            0 ICorTp=0 IEmpDi=  4
 NAtoms=    3 NActive=    3 NUniq=    3 SFac= 1.00D+00 NAtFMM=   60 NAOKFM=F Big=F
 Integral buffers will be    131072 words long.
 Raffenetti 1 integral format.
 Two-electron integral symmetry is turned off.
 Leave Link  301 at Tue Jan  9 13:03:56 2024, MaxMem=   104857600 cpu:               0.0 elap:               0.0
 (Enter /opt/g16/l402.exe)
 External calculation of energy and first derivatives.
 Running external command "python3 -u ../../src/gmm.py R"
         input file       "/home/jh-li/scratch/g16/Gau-70099.EIn"
         output file      "/home/jh-li/scratch/g16/Gau-70099.EOu"
         message file     "/home/jh-li/scratch/g16/Gau-70099.EMs"
         fchk file        "/home/jh-li/scratch/g16/Gau-70099.EFC"
         mat. el file     "/home/jh-li/scratch/g16/Gau-70099.EUF"
>>> Starting ROHF Calculation...
 Read checkpoint file mol_rohf.chk type G16
 Write formatted file mol_rohf.fchk
>>> ROHF Calculation Done!
>>> Preparing Molpro input file...
>>> Starting Molpro Calculation...
>>> Molpro Calculation Done!
>>> Extracting Molpro output file ...
>>> Done!
 Recovered energy= -93.1044511200     dipole=      0.000000000000      0.000000000000      0.000000000000
 Energy=    -93.1044511     NIter=   0.
 Dipole moment=       0.000000       0.000000       0.000000
 Leave Link  402 at Tue Jan  9 13:04:10 2024, MaxMem=   104857600 cpu:               0.0 elap:              14.4
 (Enter /opt/g16/l601.exe)
 Leave Link  601 at Tue Jan  9 13:04:10 2024, MaxMem=   104857600 cpu:               0.0 elap:               0.0
 (Enter /opt/g16/l716.exe)
 Dipole        = 0.00000000D+00 0.00000000D+00 0.00000000D+00
 -------------------------------------------------------------------
 Center     Atomic                   Forces (Hartrees/Bohr)
 Number     Number              X              Y              Z
 -------------------------------------------------------------------
      1        6          -0.024985400   -0.129544660   -0.000000000
      2        7          -0.031389690    0.135480010    0.000000000
      3        1           0.056375100   -0.005935340   -0.000000000
 -------------------------------------------------------------------
 Cartesian Forces:  Max     0.135480010 RMS     0.066633004
 Leave Link  716 at Tue Jan  9 13:04:10 2024, MaxMem=   104857600 cpu:               0.0 elap:               0.0
 (Enter /opt/g16/l106.exe)
 NDeriv=      9 NFrqRd=  0 NDerD0=      0 MskFDP=       0 MskDFD=       0 MskDF0=       0
 Re-enter D2Numr:  atom      3 IXYZ=2 step-up   number 1
 Leave Link  106 at Tue Jan  9 13:04:10 2024, MaxMem=   104857600 cpu:               0.1 elap:               0.1
 (Enter /opt/g16/l301.exe)
 Standard basis: STO-3G (5D, 7F)
 Ernie: Thresh=  0.10000D-02 Tol=  0.10000D-05 Strict=F.
    11 basis functions,    33 primitive gaussians,    11 cartesian basis functions
     7 alpha electrons        7 beta electrons
       nuclear repulsion energy        21.4312333694 Hartrees.
 IExCor=    0 DFT=F Ex=HF Corr=None ExCW=0 ScaHFX=  1.000000
 ScaDFX=  1.000000  1.000000  1.000000  1.000000 ScalE2=  1.000000  1.000000
 IRadAn=      5 IRanWt=     -1 IRanGd=            0 ICorTp=0 IEmpDi=  4
 NAtoms=    3 NActive=    3 NUniq=    3 SFac= 1.00D+00 NAtFMM=   60 NAOKFM=F Big=F
 Integral buffers will be    131072 words long.
 Raffenetti 1 integral format.
 Two-electron integral symmetry is turned off.
 Leave Link  301 at Tue Jan  9 13:04:10 2024, MaxMem=   104857600 cpu:               0.0 elap:               0.0
 (Enter /opt/g16/l402.exe)
 External calculation of energy and first derivatives.
 Running external command "python3 -u ../../src/gmm.py R"
         input file       "/home/jh-li/scratch/g16/Gau-70099.EIn"
         output file      "/home/jh-li/scratch/g16/Gau-70099.EOu"
         message file     "/home/jh-li/scratch/g16/Gau-70099.EMs"
         fchk file        "/home/jh-li/scratch/g16/Gau-70099.EFC"
         mat. el file     "/home/jh-li/scratch/g16/Gau-70099.EUF"
>>> Starting ROHF Calculation...
 Read checkpoint file mol_rohf.chk type G16
 Write formatted file mol_rohf.fchk
>>> ROHF Calculation Done!
>>> Preparing Molpro input file...
>>> Starting Molpro Calculation...
>>> Molpro Calculation Done!
>>> Extracting Molpro output file ...
>>> Done!
 Recovered energy= -93.1044736900     dipole=      0.000000000000      0.000000000000      0.000000000000
 Energy=    -93.1044737     NIter=   0.
 Dipole moment=       0.000000       0.000000       0.000000
 Leave Link  402 at Tue Jan  9 13:04:25 2024, MaxMem=   104857600 cpu:               0.0 elap:              14.6
 (Enter /opt/g16/l601.exe)
 Leave Link  601 at Tue Jan  9 13:04:25 2024, MaxMem=   104857600 cpu:               0.0 elap:               0.0
 (Enter /opt/g16/l716.exe)
 Dipole        = 0.00000000D+00 0.00000000D+00 0.00000000D+00
 -------------------------------------------------------------------
 Center     Atomic                   Forces (Hartrees/Bohr)
 Number     Number              X              Y              Z
 -------------------------------------------------------------------
      1        6          -0.024859820   -0.129449300   -0.000000000
      2        7          -0.031572430    0.135456250    0.000000000
      3        1           0.056432250   -0.006006950   -0.000000000
 -------------------------------------------------------------------
 Cartesian Forces:  Max     0.135456250 RMS     0.066617505
 Leave Link  716 at Tue Jan  9 13:04:25 2024, MaxMem=   104857600 cpu:               0.0 elap:               0.0
 (Enter /opt/g16/l106.exe)
 NDeriv=      9 NFrqRd=  0 NDerD0=      0 MskFDP=       0 MskDFD=       0 MskDF0=       0
 Re-enter D2Numr:  atom      3 IXYZ=2 step-down number 1
 Leave Link  106 at Tue Jan  9 13:04:25 2024, MaxMem=   104857600 cpu:               0.1 elap:               0.1
 (Enter /opt/g16/l301.exe)
 Standard basis: STO-3G (5D, 7F)
 Ernie: Thresh=  0.10000D-02 Tol=  0.10000D-05 Strict=F.
    11 basis functions,    33 primitive gaussians,    11 cartesian basis functions
     7 alpha electrons        7 beta electrons
       nuclear repulsion energy        21.4310715064 Hartrees.
 IExCor=    0 DFT=F Ex=HF Corr=None ExCW=0 ScaHFX=  1.000000
 ScaDFX=  1.000000  1.000000  1.000000  1.000000 ScalE2=  1.000000  1.000000
 IRadAn=      5 IRanWt=     -1 IRanGd=            0 ICorTp=0 IEmpDi=  4
 NAtoms=    3 NActive=    3 NUniq=    3 SFac= 1.00D+00 NAtFMM=   60 NAOKFM=F Big=F
 Integral buffers will be    131072 words long.
 Raffenetti 1 integral format.
 Two-electron integral symmetry is turned off.
 Leave Link  301 at Tue Jan  9 13:04:25 2024, MaxMem=   104857600 cpu:               0.0 elap:               0.0
 (Enter /opt/g16/l402.exe)
 External calculation of energy and first derivatives.
 Running external command "python3 -u ../../src/gmm.py R"
         input file       "/home/jh-li/scratch/g16/Gau-70099.EIn"
         output file      "/home/jh-li/scratch/g16/Gau-70099.EOu"
         message file     "/home/jh-li/scratch/g16/Gau-70099.EMs"
         fchk file        "/home/jh-li/scratch/g16/Gau-70099.EFC"
         mat. el file     "/home/jh-li/scratch/g16/Gau-70099.EUF"
>>> Starting ROHF Calculation...
 Read checkpoint file mol_rohf.chk type G16
 Write formatted file mol_rohf.fchk
>>> ROHF Calculation Done!
>>> Preparing Molpro input file...
>>> Starting Molpro Calculation...
>>> Molpro Calculation Done!
>>> Extracting Molpro output file ...
>>> Done!
 Recovered energy= -93.1044623300     dipole=      0.000000000000      0.000000000000      0.000000000000
 Energy=    -93.1044623     NIter=   0.
 Dipole moment=       0.000000       0.000000       0.000000
 Leave Link  402 at Tue Jan  9 13:04:40 2024, MaxMem=   104857600 cpu:               0.0 elap:              14.6
 (Enter /opt/g16/l601.exe)
 Leave Link  601 at Tue Jan  9 13:04:40 2024, MaxMem=   104857600 cpu:               0.0 elap:               0.0
 (Enter /opt/g16/l716.exe)
 Dipole        = 0.00000000D+00 0.00000000D+00 0.00000000D+00
 -------------------------------------------------------------------
 Center     Atomic                   Forces (Hartrees/Bohr)
 Number     Number              X              Y              Z
 -------------------------------------------------------------------
      1        6          -0.024922580   -0.129496950    0.000018816
      2        7          -0.031481090    0.135468140    0.000023767
      3        1           0.056403670   -0.005971190   -0.000042583
 -------------------------------------------------------------------
 Cartesian Forces:  Max     0.135468140 RMS     0.066625240
 Leave Link  716 at Tue Jan  9 13:04:40 2024, MaxMem=   104857600 cpu:               0.0 elap:               0.0
 (Enter /opt/g16/l106.exe)
 NDeriv=      9 NFrqRd=  0 NDerD0=      0 MskFDP=       0 MskDFD=       0 MskDF0=       0
 Re-enter D2Numr:  atom      3 IXYZ=3 step-up   number 1
 Skip step-back as it is equivalent to step-up.
 Finish atom      3 at Tue Jan  9 13:04:40 2024
 Maximum difference in off-diagonal FC elements:
 I=  5 J=  4 Difference=    9.7897784020D-05
 Max difference between analytic and numerical forces:
 I=  5 Difference=    5.9425489913D-05
 FinFTb:  IFil= 1 IFilD=  777 LTop=  1 LFil=         4 LTop1=  0 IMask=  1
 Leave Link  106 at Tue Jan  9 13:04:40 2024, MaxMem=   104857600 cpu:               0.1 elap:               0.1
 (Enter /opt/g16/l716.exe)
 Dipole        = 0.00000000D+00 0.00000000D+00 0.00000000D+00
 Full mass-weighted force constant matrix:
 Low frequencies --- -909.8895   -1.1388   -0.0001    1.1364  464.7833  532.1216
 Low frequencies ---  783.4414 1306.4167 1443.8635
 ******    1 imaginary frequencies (negative Signs) ****** 
 Diagonal vibrational polarizability:
        0.0000000       0.0000000       0.0000000
 Harmonic frequencies (cm**-1), IR intensities (KM/Mole), Raman scattering
 activities (A**4/AMU), depolarization ratios for plane and unpolarized
 incident light, reduced masses (AMU), force constants (mDyne/A),
 and normal coordinates:
                      1                      2                      3
                     A'                     A'                     A'
 Frequencies --   -901.4548              1306.4154              1443.5937
 Red. masses --      1.1833                 7.9019                 1.1030
 Frc consts  --      0.5666                 7.9460                 1.3543
 IR Inten    --      0.0000                 0.0000                 0.0000
  Atom  AN      X      Y      Z        X      Y      Z        X      Y      Z
     1   6    -0.07  -0.05  -0.00     0.02   0.58   0.00    -0.06   0.04  -0.00
     2   7     0.08  -0.02   0.00     0.03  -0.50   0.00    -0.02  -0.05  -0.00
     3   1    -0.17   0.98  -0.00    -0.64   0.09  -0.00     0.98   0.15   0.00

 -------------------
 - Thermochemistry -
 -------------------
 Temperature   298.150 Kelvin.  Pressure   1.00000 Atm.
 Atom     1 has atomic number  6 and mass  12.00000
 Atom     2 has atomic number  7 and mass  14.00307
 Atom     3 has atomic number  1 and mass   1.00783
 Molecular mass:    27.01090 amu.
 Principal axes and moments of inertia in atomic units:
                           1         2         3
     Eigenvalues --     6.07073  40.47332  46.54405
           X           -0.01524   0.99988   0.00000
           Y            0.99988   0.01524   0.00000
           Z           -0.00000   0.00000   1.00000
 This molecule is an asymmetric top.
 Rotational symmetry number  1.
 Rotational temperatures (Kelvin)     14.26746     2.14003     1.86090
 Rotational constants (GHZ):         297.28566    44.59089    38.77491
    1 imaginary frequencies ignored.
 Zero-point vibrational energy      16448.7 (Joules/Mol)
                                    3.93134 (Kcal/Mol)
 Vibrational temperatures:   1879.64  2077.01
          (Kelvin)
 
 Zero-point correction=                           0.006265 (Hartree/Particle)
 Thermal correction to Energy=                    0.009115
 Thermal correction to Enthalpy=                  0.010059
 Thermal correction to Gibbs Free Energy=        -0.015097
 Sum of electronic and zero-point Energies=            -93.098197
 Sum of electronic and thermal Energies=               -93.095348
 Sum of electronic and thermal Enthalpies=             -93.094404
 Sum of electronic and thermal Free Energies=          -93.119560
 
                     E (Thermal)             CV                S
                      KCal/Mol        Cal/Mol-Kelvin    Cal/Mol-Kelvin
 Total                    5.720              6.198             52.945
 Electronic               0.000              0.000              0.000
 Translational            0.889              2.981             35.816
 Rotational               0.889              2.981             17.088
 Vibrational              3.942              0.236              0.042
                       Q            Log10(Q)             Ln(Q)
 Total Bot       0.879550D+07          6.944261         15.989751
 Total V=0       0.669807D+10          9.825950         22.625085
 Vib (Bot)       0.131679D-02         -2.880484         -6.632560
 Vib (V=0)       0.100278D+01          0.001205          0.002774
 Electronic      0.100000D+01          0.000000          0.000000
 Translational   0.551776D+07          6.741762         15.523482
 Rotational      0.121055D+04          3.082983          7.098830
 
                                                         Title Card Required
                                                             IR Spectrum
 
     1            1                                                                                                                  
     4            3                                                                                                                  
     4            0                                                                                                                  
     4            6                                                                                                                  
 
                                                                                                                                     
                                                                                                                                     
                                                                                                                                     
                                                                                                                                     
                                                                                                                                     
                                                                                                                                     
                                                                                                                                     
                                                                                                                                     
                                                                                                                                     
                                                                                                                                     
                                                                                                                                     
                                                                                                                                     
                                                                                                                                     
                                                                                                                                     
                                                                                                                                     
                                                                                                                                     
                                                                                                                                     
                                                                                                                                     
                                                                                                                                     
                                                                                                                                     
 
 ***** Axes restored to original set *****
 -------------------------------------------------------------------
 Center     Atomic                   Forces (Hartrees/Bohr)
 Number     Number              X              Y              Z
 -------------------------------------------------------------------
      1        6          -0.109389835    0.073650918    0.000000000
      2        7           0.073847639   -0.117852468   -0.000000000
      3        1           0.035542195    0.044201550    0.000000000
 -------------------------------------------------------------------
 Cartesian Forces:  Max     0.117852468 RMS     0.066625234
 Z-matrix is all fixed cartesians, so copy forces.
 Force constants in Cartesian coordinates: 
                1             2             3             4             5 
      1  0.190395D+00
      2 -0.176382D+00  0.256876D+00
      3  0.000000D+00  0.000000D+00  0.572332D-01
      4 -0.192483D+00  0.197729D+00  0.000000D+00  0.236518D+00
      5  0.232875D+00 -0.227229D+00  0.000000D+00 -0.208124D+00  0.209793D+00
      6  0.000000D+00  0.000000D+00 -0.472764D-01  0.000000D+00  0.000000D+00
      7  0.211360D-02 -0.213731D-01  0.000000D+00 -0.440581D-01 -0.247276D-01
      8 -0.564695D-01 -0.296692D-01  0.000000D+00  0.103728D-01  0.174643D-01
      9  0.000000D+00  0.000000D+00 -0.995684D-02  0.000000D+00  0.000000D+00
                6             7             8             9 
      6  0.598535D-01
      7  0.000000D+00  0.419419D-01
      8  0.000000D+00  0.460993D-01  0.122009D-01
      9 -0.125770D-01  0.000000D+00  0.000000D+00  0.225339D-01
 Leave Link  716 at Tue Jan  9 13:04:40 2024, MaxMem=   104857600 cpu:               0.0 elap:               0.0
 (Enter /opt/g16/l103.exe)

 GradGradGradGradGradGradGradGradGradGradGradGradGradGradGradGradGradGrad
 Berny optimization.
 Search for a local minimum.
 Step number   1 out of a maximum of    2
 All quantities printed in internal units (Hartrees-Bohrs-Radians)
 Second derivative matrix not updated -- analytic derivatives used.
 The second derivative matrix:
                          X1        Y1        Z1        X2        Y2
           X1           0.19040
           Y1          -0.17638   0.25688
           Z1          -0.00000   0.00000   0.05723
           X2          -0.19248   0.19773   0.00000   0.23652
           Y2           0.23288  -0.22723  -0.00000  -0.20812   0.20979
           Z2           0.00000  -0.00000  -0.04728  -0.00000   0.00000
           X3           0.00211  -0.02137  -0.00000  -0.04406  -0.02473
           Y3          -0.05647  -0.02967   0.00000   0.01037   0.01746
           Z3          -0.00000   0.00000  -0.00996   0.00000   0.00000
                          Z2        X3        Y3        Z3
           Z2           0.05985
           X3           0.00000   0.04194
           Y3           0.00000   0.04610   0.01220
           Z3          -0.01258   0.00000  -0.00000   0.02253
 ITU=  0
     Eigenvalues ---   -0.07544   0.10304   0.84061
 Eigenvalue     1 is  -7.54D-02 should be greater than     0.000000 Eigenvector:
                          Y3        X3        X1        Y2        X2
   1                    0.71052  -0.47569   0.35160  -0.34290  -0.14573
                          Y1        Z3        Z1        Z2
   1                    0.08030   0.00000  -0.00000  -0.00000
 Quadratic step=7.012D-01 exceeds max=3.000D-01 adjusted using Lamda=-1.818D-01.
 Angle between NR and scaled steps=  19.09 degrees.
 Angle between quadratic step and forces=  33.36 degrees.
 ClnCor:  largest displacement from symmetrization is 2.78D-17 for atom     3.
 Linear search not attempted -- first point.
 ClnCor:  largest displacement from symmetrization is 3.14D-16 for atom     3.
 B after Tr=    -0.027883   -0.037125   -0.000000
         Rot=    1.000000   -0.000000   -0.000000   -0.000028 Ang=  -0.00 deg.
 Variable       Old X    -DE/DX   Delta X   Delta X   Delta X     New X
                                 (Linear)    (Quad)   (Total)
    X1        1.06419  -0.10939   0.00000  -0.12570  -0.15353   0.91066
    Y1       -1.08915   0.07365   0.00000   0.06223   0.02516  -1.06399
    Z1       -0.00000   0.00000   0.00000   0.00000  -0.00000  -0.00000
    X2       -0.70903   0.07385   0.00000   0.05997   0.03205  -0.67697
    Y2        0.67453  -0.11785   0.00000  -0.12252  -0.15968   0.51485
    Z2        0.00000  -0.00000   0.00000  -0.00000   0.00000   0.00000
    X3       -1.50279   0.03554   0.00000   0.14925   0.12147  -1.38132
    Y3       -2.06633   0.04420   0.00000   0.17173   0.13452  -1.93181
    Z3       -0.00000   0.00000   0.00000   0.00000   0.00000   0.00000
         Item               Value     Threshold  Converged?
 Maximum Force            0.117852     0.000450     NO 
 RMS     Force            0.066625     0.000300     NO 
 Maximum Displacement     0.159682     0.001800     NO 
 RMS     Displacement     0.096369     0.001200     NO 
 Predicted change in Energy=-3.338846D-02
 GradGradGradGradGradGradGradGradGradGradGradGradGradGradGradGradGradGrad

 Leave Link  103 at Tue Jan  9 13:04:40 2024, MaxMem=   104857600 cpu:               0.0 elap:               0.0
 (Enter /opt/g16/l9999.exe)
 Unable to Open any file for archive entry.
 1\1\GINC-DESKTOP-1D9QDE1\Freq\External='python3 -u ../../src/gmm.py'\Z
 DO\C1H1N1\JH-LI\09-Jan-2024\0\\#p external="python3 -u ../../src/gmm.p
 y" freq=num\\Title Card Required\\0,1\C,0.56314246,-0.57635434,0.\N,-0
 .37519999,0.35694724,0.\H,-0.79524238,-1.09345422,0.\\Version=ES64L-G1
 6RevC.01\HF=-93.1044624\RMSD=0.000e+00\RMSF=6.663e-02\ZeroPoint=0.0062
 65\Thermal=0.0091146\ETot=-93.0953477\HTot=-93.0944035\GTot=-93.119559
 7\Dipole=0.,0.,0.\DipoleDeriv=0.,0.,0.,0.,0.,0.,0.,0.,0.,0.,0.,0.,0.,0
 .,0.,0.,0.,0.,0.,0.,0.,0.,0.,0.,0.,0.,0.\PG=CS [SG(C1H1N1)]\NImag=1\\0
 .19039504,-0.17638175,0.25687612,0.,0.,0.05723325,-0.19248350,0.197728
 52,0.,0.23651780,0.23287514,-0.22722944,0.,-0.20812391,0.20979290,0.,0
 .,-0.04727642,0.,0.,0.05985347,0.00211360,-0.02137310,0.,-0.04405812,-
 0.02472756,0.,0.04194188,-0.05646946,-0.02966918,0.,0.01037276,0.01746
 432,0.,0.04609934,0.01220089,0.,0.,-0.00995684,0.,0.,-0.01257705,0.,0.
 ,0.02253391\\0.10938983,-0.07365092,0.,-0.07384764,0.11785247,0.,-0.03
 554220,-0.04420155,0.\\\@
 The archive entry for this job was punched.


 At the touch of love, everyone becomes a poet.
                                -- Plato
 Job cpu time:       0 days  0 hours  0 minutes  3.8 seconds.
 Elapsed time:       0 days  0 hours  3 minutes 52.7 seconds.
 File lengths (MBytes):  RWF=     43 Int=      0 D2E=      0 Chk=     38 Scr=      1
 Normal termination of Gaussian 16 at Tue Jan  9 13:04:40 2024.
 Initial command:
 /opt/g16/l1.exe "/home/jh-li/scratch/g16/Gau-70083.inp" -scrdir="/home/jh-li/scratch/g16/"
 Entering Link 1 = /opt/g16/l1.exe PID=     75026.
  
 Copyright (c) 1988-2019, Gaussian, Inc.  All Rights Reserved.
  
 This is part of the Gaussian(R) 16 program.  It is based on
 the Gaussian(R) 09 system (copyright 2009, Gaussian, Inc.),
 the Gaussian(R) 03 system (copyright 2003, Gaussian, Inc.),
 the Gaussian(R) 98 system (copyright 1998, Gaussian, Inc.),
 the Gaussian(R) 94 system (copyright 1995, Gaussian, Inc.),
 the Gaussian 92(TM) system (copyright 1992, Gaussian, Inc.),
 the Gaussian 90(TM) system (copyright 1990, Gaussian, Inc.),
 the Gaussian 88(TM) system (copyright 1988, Gaussian, Inc.),
 the Gaussian 86(TM) system (copyright 1986, Carnegie Mellon
 University), and the Gaussian 82(TM) system (copyright 1983,
 Carnegie Mellon University). Gaussian is a federally registered
 trademark of Gaussian, Inc.
  
 This software contains proprietary and confidential information,
 including trade secrets, belonging to Gaussian, Inc.
  
 This software is provided under written license and may be
 used, copied, transmitted, or stored only in accord with that
 written license.
  
 The following legend is applicable only to US Government
 contracts under FAR:
  
                    RESTRICTED RIGHTS LEGEND
  
 Use, reproduction and disclosure by the US Government is
 subject to restrictions as set forth in subparagraphs (a)
 and (c) of the Commercial Computer Software - Restricted
 Rights clause in FAR 52.227-19.
  
 Gaussian, Inc.
 340 Quinnipiac St., Bldg. 40, Wallingford CT 06492
  
  
 ---------------------------------------------------------------
 Warning -- This program may not be used in any manner that
 competes with the business of Gaussian, Inc. or will provide
 assistance to any competitor of Gaussian, Inc.  The licensee
 of this program is prohibited from giving any competitor of
 Gaussian, Inc. access to this program.  By using this program,
 the user acknowledges that Gaussian, Inc. is engaged in the
 business of creating and licensing software in the field of
 computational chemistry and represents and warrants to the
 licensee that it is not a competitor of Gaussian, Inc. and that
 it will not use this program in any manner prohibited above.
 ---------------------------------------------------------------
  

 Cite this work as:
 Gaussian 16, Revision C.01,
 M. J. Frisch, G. W. Trucks, H. B. Schlegel, G. E. Scuseria, 
 M. A. Robb, J. R. Cheeseman, G. Scalmani, V. Barone, 
 G. A. Petersson, H. Nakatsuji, X. Li, M. Caricato, A. V. Marenich, 
 J. Bloino, B. G. Janesko, R. Gomperts, B. Mennucci, H. P. Hratchian, 
 J. V. Ortiz, A. F. Izmaylov, J. L. Sonnenberg, D. Williams-Young, 
 F. Ding, F. Lipparini, F. Egidi, J. Goings, B. Peng, A. Petrone, 
 T. Henderson, D. Ranasinghe, V. G. Zakrzewski, J. Gao, N. Rega, 
 G. Zheng, W. Liang, M. Hada, M. Ehara, K. Toyota, R. Fukuda, 
 J. Hasegawa, M. Ishida, T. Nakajima, Y. Honda, O. Kitao, H. Nakai, 
 T. Vreven, K. Throssell, J. A. Montgomery, Jr., J. E. Peralta, 
 F. Ogliaro, M. J. Bearpark, J. J. Heyd, E. N. Brothers, K. N. Kudin, 
 V. N. Staroverov, T. A. Keith, R. Kobayashi, J. Normand, 
 K. Raghavachari, A. P. Rendell, J. C. Burant, S. S. Iyengar, 
 J. Tomasi, M. Cossi, J. M. Millam, M. Klene, C. Adamo, R. Cammi, 
 J. W. Ochterski, R. L. Martin, K. Morokuma, O. Farkas, 
 J. B. Foresman, and D. J. Fox, Gaussian, Inc., Wallingford CT, 2019.
 
 ******************************************
 Gaussian 16:  ES64L-G16RevC.01  3-Jul-2019
                 9-Jan-2024 
 ******************************************
 %nproc=1
 Will use up to    1 processors via shared memory.
 %chk=HCN-ts-opt-freq.chk
 ----------------------------------------------------------------------
 #p external="python3 -u ../../src/gmm.py" opt=(rcfc,noeigen,nomicro,ts
 ) geom=allcheck
 ----------------------------------------------------------------------
 1/5=1,10=5,11=1,18=20,26=1,29=7,38=1/1,3;
 2/9=110,12=2,40=1/2;
 3/11=9,14=-4,25=1,30=1,41=9900000,43=2,71=1/1;
 4/20=17,22=1,24=3,113=1,114=1/2;
 6/7=2,8=2,9=2,10=2/1;
 7/44=-1/16;
 1/5=1,10=5,11=1,18=20,26=1/3(2);
 2/9=110/2;
 99//99;
 2/9=110/2;
 3/11=9,14=-2,25=1,30=1,41=9900000,43=2,71=1/1;
 4/16=2,20=17,22=1,24=3,113=1,114=1/2;
 7/44=-1/16;
 1/5=1,11=1,18=20,26=1/3(-4);
 2/9=110/2;
 6/7=2,8=2,9=2,10=2/1;
 99/9=10/99;
 Leave Link    1 at Tue Jan  9 13:04:40 2024, MaxMem=           0 cpu:               0.0 elap:               0.0
 (Enter /opt/g16/l101.exe)
 Structure from the checkpoint file:  "HCN-ts-opt-freq.chk"
 -------------------
 Title Card Required
 -------------------
 Charge =  0 Multiplicity = 1
 No Z-Matrix found in chk file; cartesian coordinates used.
  C                                                 0.563142460000     -0.576354340000     -0.000000000000
  N                                                -0.375199990000      0.356947240000      0.000000000000
  H                                                -0.795242380000     -1.093454220000     -0.000000000000
 Recover connectivity data from disk.
 Add virtual bond connecting atoms H3         and C1         Dist= 2.75D+00.
 Add virtual bond connecting atoms H3         and N2         Dist= 2.85D+00.
 ITRead=  0  0  0
 MicOpt= -1 -1 -1
 NAtoms=      3 NQM=        3 NQMF=       0 NMMI=      0 NMMIF=      0
                NMic=       0 NMicF=      0.
                    Isotopes and Nuclear Properties:
 (Nuclear quadrupole moments (NQMom) in fm**2, nuclear magnetic moments (NMagM)
  in nuclear magnetons)

  Atom         1           2           3
 IAtWgt=          12          14           1
 AtmWgt=  12.0000000  14.0030740   1.0078250
 NucSpn=           0           2           1
 AtZEff=   3.6000000   4.5500000   1.0000000
 NQMom=    0.0000000   2.0440000   0.0000000
 NMagM=    0.0000000   0.4037610   2.7928460
 AtZNuc=   6.0000000   7.0000000   1.0000000
 Leave Link  101 at Tue Jan  9 13:04:40 2024, MaxMem=   104857600 cpu:               0.1 elap:               0.1
 (Enter /opt/g16/l103.exe)

 GradGradGradGradGradGradGradGradGradGradGradGradGradGradGradGradGradGrad
 Berny optimization.
 Initialization pass.
 Cartesian force constants read from checkpoint file:
 "HCN-ts-opt-freq.chk"
 FormGI is forming the generalized inverse of G from B-inverse, IUseBI=4.
[...]
 Two-electron integral symmetry is turned off.
 Leave Link  301 at Tue Jan  9 13:09:41 2024, MaxMem=   104857600 cpu:               0.0 elap:               0.0
 (Enter /opt/g16/l402.exe)
 External calculation of energy and first derivatives.
 Running external command "python3 -u ../../src/gmm.py R"
         input file       "/home/jh-li/scratch/g16/Gau-77424.EIn"
         output file      "/home/jh-li/scratch/g16/Gau-77424.EOu"
         message file     "/home/jh-li/scratch/g16/Gau-77424.EMs"
         fchk file        "/home/jh-li/scratch/g16/Gau-77424.EFC"
         mat. el file     "/home/jh-li/scratch/g16/Gau-77424.EUF"
>>> Starting ROHF Calculation...
 Read checkpoint file mol_rohf.chk type G16
 Write formatted file mol_rohf.fchk
>>> ROHF Calculation Done!
>>> Preparing Molpro input file...
>>> Starting Molpro Calculation...
>>> Molpro Calculation Done!
>>> Extracting Molpro output file ...
>>> Done!
 Recovered energy= -93.1311074200     dipole=      0.000000000000      0.000000000000      0.000000000000
 Energy=    -93.1311074     NIter=   0.
 Dipole moment=       0.000000       0.000000       0.000000
 Leave Link  402 at Tue Jan  9 13:09:55 2024, MaxMem=   104857600 cpu:               0.0 elap:              13.9
 (Enter /opt/g16/l601.exe)
 Leave Link  601 at Tue Jan  9 13:09:55 2024, MaxMem=   104857600 cpu:               0.0 elap:               0.0
 (Enter /opt/g16/l716.exe)
 Dipole        = 0.00000000D+00 0.00000000D+00 0.00000000D+00
 -------------------------------------------------------------------
 Center     Atomic                   Forces (Hartrees/Bohr)
 Number     Number              X              Y              Z
 -------------------------------------------------------------------
      1        6          -0.000023465    0.000011659   -0.000000000
      2        7          -0.000155003    0.000093400    0.000000000
      3        1           0.000178469   -0.000105059   -0.000000000
 -------------------------------------------------------------------
 Cartesian Forces:  Max     0.000178469 RMS     0.000092090
 Leave Link  716 at Tue Jan  9 13:09:55 2024, MaxMem=   104857600 cpu:               0.0 elap:               0.0
 (Enter /opt/g16/l106.exe)
 NDeriv=      9 NFrqRd=  0 NDerD0=      0 MskFDP=       0 MskDFD=       0 MskDF0=       0
 Re-enter D2Numr:  atom      3 IXYZ=2 step-down number 1
 Leave Link  106 at Tue Jan  9 13:09:55 2024, MaxMem=   104857600 cpu:               0.1 elap:               0.1
 (Enter /opt/g16/l301.exe)
 Standard basis: STO-3G (5D, 7F)
 Ernie: Thresh=  0.10000D-02 Tol=  0.10000D-05 Strict=F.
    11 basis functions,    33 primitive gaussians,    11 cartesian basis functions
     7 alpha electrons        7 beta electrons
       nuclear repulsion energy        23.6068550004 Hartrees.
 IExCor=    0 DFT=F Ex=HF Corr=None ExCW=0 ScaHFX=  1.000000
 ScaDFX=  1.000000  1.000000  1.000000  1.000000 ScalE2=  1.000000  1.000000
 IRadAn=      5 IRanWt=     -1 IRanGd=            0 ICorTp=0 IEmpDi=  4
 NAtoms=    3 NActive=    3 NUniq=    3 SFac= 1.00D+00 NAtFMM=   60 NAOKFM=F Big=F
 Integral buffers will be    131072 words long.
 Raffenetti 1 integral format.
 Two-electron integral symmetry is turned off.
 Leave Link  301 at Tue Jan  9 13:09:55 2024, MaxMem=   104857600 cpu:               0.0 elap:               0.0
 (Enter /opt/g16/l402.exe)
 External calculation of energy and first derivatives.
 Running external command "python3 -u ../../src/gmm.py R"
         input file       "/home/jh-li/scratch/g16/Gau-77424.EIn"
         output file      "/home/jh-li/scratch/g16/Gau-77424.EOu"
         message file     "/home/jh-li/scratch/g16/Gau-77424.EMs"
         fchk file        "/home/jh-li/scratch/g16/Gau-77424.EFC"
         mat. el file     "/home/jh-li/scratch/g16/Gau-77424.EUF"
>>> Starting ROHF Calculation...
 Read checkpoint file mol_rohf.chk type G16
 Write formatted file mol_rohf.fchk
>>> ROHF Calculation Done!
>>> Preparing Molpro input file...
>>> Starting Molpro Calculation...
>>> Molpro Calculation Done!
>>> Extracting Molpro output file ...
>>> Done!
 Recovered energy= -93.1311073000     dipole=      0.000000000000      0.000000000000      0.000000000000
 Energy=    -93.1311073     NIter=   0.
 Dipole moment=       0.000000       0.000000       0.000000
 Leave Link  402 at Tue Jan  9 13:10:09 2024, MaxMem=   104857600 cpu:               0.0 elap:              13.7
 (Enter /opt/g16/l601.exe)
 Leave Link  601 at Tue Jan  9 13:10:09 2024, MaxMem=   104857600 cpu:               0.0 elap:               0.0
 (Enter /opt/g16/l716.exe)
 Dipole        = 0.00000000D+00 0.00000000D+00 0.00000000D+00
 -------------------------------------------------------------------
 Center     Atomic                   Forces (Hartrees/Bohr)
 Number     Number              X              Y              Z
 -------------------------------------------------------------------
      1        6          -0.000055410   -0.000079570    0.000000049
      2        7          -0.000062000    0.000106382    0.000000054
      3        1           0.000117410   -0.000026811   -0.000000103
 -------------------------------------------------------------------
 Cartesian Forces:  Max     0.000117410 RMS     0.000065884
 Leave Link  716 at Tue Jan  9 13:10:09 2024, MaxMem=   104857600 cpu:               0.0 elap:               0.0
 (Enter /opt/g16/l106.exe)
 NDeriv=      9 NFrqRd=  0 NDerD0=      0 MskFDP=       0 MskDFD=       0 MskDF0=       0
 Re-enter D2Numr:  atom      3 IXYZ=3 step-up   number 1
 Skip step-back as it is equivalent to step-up.
 Finish atom      3 at Tue Jan  9 13:10:09 2024
 Maximum difference in off-diagonal FC elements:
 I=  7 J=  2 Difference=    1.9769372670D-05
 Max difference between analytic and numerical forces:
 I=  2 Difference=    1.0831076100D-04
 FinFTb:  IFil= 1 IFilD=  777 LTop=  1 LFil=         4 LTop1=  0 IMask=  1
 Leave Link  106 at Tue Jan  9 13:10:09 2024, MaxMem=   104857600 cpu:               0.1 elap:               0.1
 (Enter /opt/g16/l716.exe)
 Dipole        = 0.00000000D+00 0.00000000D+00 0.00000000D+00
 Full mass-weighted force constant matrix:
 Low frequencies ----1184.4001   -0.0934   -0.0062    1.6088   12.8821   18.0346
 Low frequencies ---   38.4950 1953.2005 2594.4630
 ******    1 imaginary frequencies (negative Signs) ****** 
 Diagonal vibrational polarizability:
        0.0000000       0.0000000       0.0000000
 Harmonic frequencies (cm**-1), IR intensities (KM/Mole), Raman scattering
 activities (A**4/AMU), depolarization ratios for plane and unpolarized
 incident light, reduced masses (AMU), force constants (mDyne/A),
 and normal coordinates:
                      1                      2                      3
                     A'                     A'                     A'
 Frequencies --  -1184.4000              1953.2005              2594.4630
 Red. masses --      1.1632                12.1387                 1.0601
 Frc consts  --      0.9614                27.2844                 4.2043
 IR Inten    --      0.0000                 0.0000                 0.0000
  Atom  AN      X      Y      Z        X      Y      Z        X      Y      Z
     1   6    -0.07  -0.05  -0.00    -0.02   0.73   0.00    -0.07  -0.01   0.00
     2   7     0.07  -0.03  -0.00     0.01  -0.64  -0.00    -0.02   0.00   0.00
     3   1    -0.15   0.98   0.00     0.11   0.22   0.00     0.99   0.10  -0.00

 -------------------
 - Thermochemistry -
 -------------------
 Temperature   298.150 Kelvin.  Pressure   1.00000 Atm.
 Atom     1 has atomic number  6 and mass  12.00000
 Atom     2 has atomic number  7 and mass  14.00307
 Atom     3 has atomic number  1 and mass   1.00783
 Molecular mass:    27.01090 amu.
 Principal axes and moments of inertia in atomic units:
                           1         2         3
     Eigenvalues --     4.47819  34.16504  38.64323
           X           -0.03646   0.99934   0.00000
           Y            0.99934   0.03646   0.00000
           Z            0.00000   0.00000   1.00000
 This molecule is an asymmetric top.
 Rotational symmetry number  1.
 Rotational temperatures (Kelvin)     19.34129     2.53516     2.24137
 Rotational constants (GHZ):         403.00707    52.82421    46.70265
    1 imaginary frequencies ignored.
 Zero-point vibrational energy      27201.1 (Joules/Mol)
                                    6.50121 (Kcal/Mol)
 Vibrational temperatures:   2810.22  3732.85
          (Kelvin)
 
 Zero-point correction=                           0.010360 (Hartree/Particle)
 Thermal correction to Energy=                    0.013194
 Thermal correction to Enthalpy=                  0.014138
 Thermal correction to Gibbs Free Energy=        -0.010688
 Sum of electronic and zero-point Energies=            -93.120747
 Sum of electronic and thermal Energies=               -93.117914
 Sum of electronic and thermal Enthalpies=             -93.116969
 Sum of electronic and thermal Free Energies=          -93.141795
 
                     E (Thermal)             CV                S
                      KCal/Mol        Cal/Mol-Kelvin    Cal/Mol-Kelvin
 Total                    8.279              5.977             52.250
 Electronic               0.000              0.000              0.000
 Translational            0.889              2.981             35.816
 Rotational               0.889              2.981             16.432
 Vibrational              6.502              0.015              0.002
                       Q            Log10(Q)             Ln(Q)
 Total Bot       0.824332D+05          4.916102         11.319744
 Total V=0       0.480312D+10          9.681523         22.292532
 Vib (Bot)       0.171639D-04         -4.765385        -10.972704
 Vib (V=0)       0.100008D+01          0.000037          0.000084
 Electronic      0.100000D+01          0.000000          0.000000
 Translational   0.551776D+07          6.741762         15.523482
 Rotational      0.870411D+03          2.939724          6.768966
 
                                                         Title Card Required
                                                             IR Spectrum
 
     2                               1                                                                                               
     5                               9                                                                                               
     9                               5                                                                                               
     4                               3                                                                                               
 
                                                                                                                                     
                                                                                                                                     
                                                                                                                                     
                                                                                                                                     
                                                                                                                                     
                                                                                                                                     
                                                                                                                                     
                                                                                                                                     
                                                                                                                                     
                                                                                                                                     
                                                                                                                                     
                                                                                                                                     
                                                                                                                                     
                                                                                                                                     
                                                                                                                                     
                                                                                                                                     
                                                                                                                                     
                                                                                                                                     
                                                                                                                                     
                                                                                                                                     
 
 ***** Axes restored to original set *****
 -------------------------------------------------------------------
 Center     Atomic                   Forces (Hartrees/Bohr)
 Number     Number              X              Y              Z
 -------------------------------------------------------------------
      1        6          -0.000093658    0.000024669    0.000000000
      2        7           0.000021892   -0.000121151   -0.000000000
      3        1           0.000071766    0.000096481    0.000000000
 -------------------------------------------------------------------
 Cartesian Forces:  Max     0.000121151 RMS     0.000065825
 Force constants in Cartesian coordinates: 
                1             2             3             4             5 
      1  0.420338D+00
      2 -0.378690D+00  0.590682D+00
      3  0.000000D+00  0.000000D+00  0.526538D-04
      4 -0.320902D+00  0.473849D+00  0.000000D+00  0.374543D+00
      5  0.521555D+00 -0.543426D+00  0.000000D+00 -0.483179D+00  0.541029D+00
      6  0.000000D+00  0.000000D+00 -0.270442D-04  0.000000D+00  0.000000D+00
      7 -0.994350D-01 -0.951611D-01  0.000000D+00 -0.536421D-01 -0.383744D-01
      8 -0.142866D+00 -0.472537D-01  0.000000D+00  0.933123D-02  0.239743D-02
      9  0.000000D+00  0.000000D+00 -0.256525D-04  0.000000D+00  0.000000D+00
                6             7             8             9 
      6  0.557753D-04
      7  0.000000D+00  0.153077D+00
      8  0.000000D+00  0.133534D+00  0.448559D-01
      9 -0.287232D-04  0.000000D+00  0.000000D+00  0.544107D-04
 Leave Link  716 at Tue Jan  9 13:10:09 2024, MaxMem=   104857600 cpu:               0.0 elap:               0.0
 (Enter /opt/g16/l103.exe)

 GradGradGradGradGradGradGradGradGradGradGradGradGradGradGradGradGradGrad
 Berny optimization.
 Search for a local minimum.
 Step number   1 out of a maximum of    2
 All quantities printed in internal units (Hartrees-Bohrs-Radians)
 Second derivative matrix not updated -- analytic derivatives used.
 The second derivative matrix:
                          X1        Y1        Z1        X2        Y2
           X1           0.42034
           Y1          -0.37869   0.59068
           Z1          -0.00000   0.00000   0.00005
           X2          -0.32090   0.47385   0.00000   0.37454
           Y2           0.52156  -0.54343  -0.00000  -0.48318   0.54103
           Z2           0.00000  -0.00000  -0.00003  -0.00000   0.00000
           X3          -0.09944  -0.09516  -0.00000  -0.05364  -0.03837
           Y3          -0.14287  -0.04725   0.00000   0.00933   0.00240
           Z3          -0.00000   0.00000  -0.00003   0.00000   0.00000
                          Z2        X3        Y3        Z3
           Z2           0.00006
           X3           0.00000   0.15308
           Y3          -0.00000   0.13353   0.04486
           Z3          -0.00003   0.00000  -0.00000   0.00005
 ITU=  0
     Eigenvalues ---   -0.11447   0.35274   1.86026
 Eigenvalue     1 is  -1.14D-01 should be greater than     0.000000 Eigenvector:
                          Y3        X3        X1        Y2        X2
   1                    0.77679  -0.39909   0.33000  -0.32182  -0.15468
                          Y1        Z3        Z2        Z1
   1                    0.03048   0.00000  -0.00000  -0.00000
 Angle between quadratic step and forces=  47.15 degrees.
 ClnCor:  largest displacement from symmetrization is 3.26D-19 for atom     3.
 Linear search not attempted -- first point.
 ClnCor:  largest displacement from symmetrization is 1.29D-15 for atom     3.
 B after Tr=    -0.000055   -0.000096   -0.000000
         Rot=    1.000000   -0.000000   -0.000000   -0.000019 Ang=  -0.00 deg.
 Variable       Old X    -DE/DX   Delta X   Delta X   Delta X     New X
                                 (Linear)    (Quad)   (Total)
    X1        0.81481  -0.00009   0.00000   0.00003   0.00001   0.81483
    Y1       -1.12243   0.00002   0.00000  -0.00001  -0.00008  -1.12251
    Z1       -0.00000   0.00000   0.00000  -0.00000  -0.00000  -0.00000
    X2       -0.67076   0.00002   0.00000  -0.00006  -0.00014  -0.67090
    Y2        0.61935  -0.00012   0.00000  -0.00019  -0.00031   0.61904
    Z2        0.00000  -0.00000   0.00000  -0.00000   0.00000   0.00000
    X3       -1.29169   0.00007   0.00000   0.00010   0.00013  -1.29156
    Y3       -1.97787   0.00010   0.00000   0.00053   0.00039  -1.97748
    Z3       -0.00000   0.00000   0.00000   0.00000   0.00000   0.00000
         Item               Value     Threshold  Converged?
 Maximum Force            0.000121     0.000450     YES
 RMS     Force            0.000066     0.000300     YES
 Maximum Displacement     0.000388     0.001800     YES
 RMS     Displacement     0.000180     0.001200     YES
 Predicted change in Energy=-6.238410D-08
 Optimization completed.
    -- Stationary point found.
 GradGradGradGradGradGradGradGradGradGradGradGradGradGradGradGradGradGrad

 Leave Link  103 at Tue Jan  9 13:10:09 2024, MaxMem=   104857600 cpu:               0.0 elap:               0.0
 (Enter /opt/g16/l9999.exe)
 Unable to Open any file for archive entry.
 1\1\GINC-DESKTOP-1D9QDE1\Freq\External='python3 -u ../../src/gmm.py'\Z
 DO\C1H1N1\JH-LI\09-Jan-2024\0\\#p external="python3 -u ../../src/gmm.p
 y" freq=num geom=allcheck\\Title Card Required\\0,1\C,0.4311812572,-0.
 5939648184,0.\N,-0.3549482712,0.3277465289,0.\H,-0.683532896,-1.046643
 0306,0.\\Version=ES64L-G16RevC.01\HF=-93.1311073\RMSD=0.000e+00\RMSF=6
 .582e-05\ZeroPoint=0.0103603\Thermal=0.0131937\ETot=-93.1179136\HTot=-
 93.1169695\GTot=-93.1417952\Dipole=0.,0.,0.\DipoleDeriv=0.,0.,0.,0.,0.
 ,0.,0.,0.,0.,0.,0.,0.,0.,0.,0.,0.,0.,0.,0.,0.,0.,0.,0.,0.,0.,0.,0.\PG=
 CS [SG(C1H1N1)]\NImag=1\\0.42033831,-0.37869039,0.59068180,0.,0.,0.000
 05265,-0.32090185,0.47384873,0.,0.37454348,0.52155528,-0.54342626,0.,-
 0.48317877,0.54102894,0.,0.,-0.00002704,0.,0.,0.00005578,-0.09943504,-
 0.09516110,0.,-0.05364212,-0.03837438,0.,0.15307733,-0.14286637,-0.047
 25374,0.,0.00933123,0.00239743,0.,0.13353447,0.04485593,0.,0.,-0.00002
 565,0.,0.,-0.00002872,0.,0.,0.00005441\\0.00009366,-0.00002467,0.,-0.0
 0002189,0.00012115,0.,-0.00007177,-0.00009648,0.\\\@
 The archive entry for this job was punched.


 IT IS DOUBTED WHETHER A MAN EVER BRINGS HIS FACULTIES TO BEAR WITH THEIR FULL FORCE
 ON A SUBJECT UNTIL HE WRITES UPON IT.

                          -- CICERO
 Job cpu time:       0 days  0 hours  0 minutes  3.6 seconds.
 Elapsed time:       0 days  0 hours  3 minutes 40.5 seconds.
 File lengths (MBytes):  RWF=     43 Int=      0 D2E=      0 Chk=     38 Scr=      1
 Normal termination of Gaussian 16 at Tue Jan  9 13:10:09 2024.
