 Entering Gaussian System, Link 0=g16
 Initial command:
 /opt/g16/l1.exe "/home/jh-li/scratch/g16/Gau-262641.inp" -scrdir="/home/jh-li/scratch/g16/"
 Entering Link 1 = /opt/g16/l1.exe PID=    262667.
  
 Copyright (c) 1988,1990,1992,1993,1995,1998,2003,2009,2016,
            Gaussian, Inc.  All Rights Reserved.
  
 This is part of the Gaussian(R) 16 program.  It is based on
 the Gaussian(R) 09 system (copyright 2009, Gaussian, Inc.),
 the Gaussian(R) 03 system (copyright 2003, Gaussian, Inc.),
 the Gaussian(R) 98 system (copyright 1998, Gaussian, Inc.),
 the Gaussian(R) 94 system (copyright 1995, Gaussian, Inc.),
 the Gaussian 92(TM) system (copyright 1992, Gaussian, Inc.),
 the Gaussian 90(TM) system (copyright 1990, Gaussian, Inc.),
 the Gaussian 88(TM) system (copyright 1988, Gaussian, Inc.),
 the Gaussian 86(TM) system (copyright 1986, Carnegie Mellon
 University), and the Gaussian 82(TM) system (copyright 1983,
 Carnegie Mellon University). Gaussian is a federally registered
 trademark of Gaussian, Inc.
  
 This software contains proprietary and confidential information,
 including trade secrets, belonging to Gaussian, Inc.
  
 This software is provided under written license and may be
 used, copied, transmitted, or stored only in accord with that
 written license.
  
 The following legend is applicable only to US Government
 contracts under FAR:
  
                    RESTRICTED RIGHTS LEGEND
  
 Use, reproduction and disclosure by the US Government is
 subject to restrictions as set forth in subparagraphs (a)
 and (c) of the Commercial Computer Software - Restricted
 Rights clause in FAR 52.227-19.
  
 Gaussian, Inc.
 340 Quinnipiac St., Bldg. 40, Wallingford CT 06492
  
  
 ---------------------------------------------------------------
 Warning -- This program may not be used in any manner that
 competes with the business of Gaussian, Inc. or will provide
 assistance to any competitor of Gaussian, Inc.  The licensee
 of this program is prohibited from giving any competitor of
 Gaussian, Inc. access to this program.  By using this program,
 the user acknowledges that Gaussian, Inc. is engaged in the
 business of creating and licensing software in the field of
 computational chemistry and represents and warrants to the
 licensee that it is not a competitor of Gaussian, Inc. and that
 it will not use this program in any manner prohibited above.
 ---------------------------------------------------------------
  

 Cite this work as:
 Gaussian 16, Revision A.03,
 M. J. Frisch, G. W. Trucks, H. B. Schlegel, G. E. Scuseria, 
 M. A. Robb, J. R. Cheeseman, G. Scalmani, V. Barone, 
 G. A. Petersson, H. Nakatsuji, X. Li, M. Caricato, A. V. Marenich, 
 J. Bloino, B. G. Janesko, R. Gomperts, B. Mennucci, H. P. Hratchian, 
 J. V. Ortiz, A. F. Izmaylov, J. L. Sonnenberg, D. Williams-Young, 
 F. Ding, F. Lipparini, F. Egidi, J. Goings, B. Peng, A. Petrone, 
 T. Henderson, D. Ranasinghe, V. G. Zakrzewski, J. Gao, N. Rega, 
 G. Zheng, W. Liang, M. Hada, M. Ehara, K. Toyota, R. Fukuda, 
 J. Hasegawa, M. Ishida, T. Nakajima, Y. Honda, O. Kitao, H. Nakai, 
 T. Vreven, K. Throssell, J. A. Montgomery, Jr., J. E. Peralta, 
 F. Ogliaro, M. J. Bearpark, J. J. Heyd, E. N. Brothers, K. N. Kudin, 
 V. N. Staroverov, T. A. Keith, R. Kobayashi, J. Normand, 
 K. Raghavachari, A. P. Rendell, J. C. Burant, S. S. Iyengar, 
 J. Tomasi, M. Cossi, J. M. Millam, M. Klene, C. Adamo, R. Cammi, 
 J. W. Ochterski, R. L. Martin, K. Morokuma, O. Farkas, 
 J. B. Foresman, and D. J. Fox, Gaussian, Inc., Wallingford CT, 2016.
 
 ******************************************
 Gaussian 16:  ES64L-G16RevA.03 25-Dec-2016
                15-Mar-2025 
 ******************************************
 %nproc=1
 Will use up to    1 processors via shared memory.
 %chk=HCN-ts-opt-freq.chk
 ------------------------------------------------------------
 #p external="python3 -u ../../../src/gmm.py" freq=num nosymm
 ------------------------------------------------------------
 1/10=4,18=10,30=1,38=11/1,6,3;
 2/12=2,15=1,17=6,18=5,40=1/2;
 3/11=9,25=1,30=1,41=9900000,43=2,71=1/1;
 4/20=17,22=1,24=3,113=1,114=1/2;
 6/7=2,8=2,9=2,10=2/1;
 7/30=1,44=-1/16;
 1/10=4,18=10,30=1,38=10/6(3);
 7/8=1,25=1,30=1,44=-1/16;
 1/10=4,18=10,30=1,38=10/3;
 99//99;
 3/11=9,25=1,30=1,41=9900000,43=2,71=1/1;
 4/16=2,20=17,22=1,24=3,113=1,114=1/2;
 6/7=2,8=2,9=2,10=2/1;
 7/7=1,30=1,44=-1/16;
 1/10=4,18=10,30=1,38=10/6(-4);
 7/8=1,25=1,30=1,44=-1/16;
 1/10=4,18=10,30=1,38=10/3;
 99//99;
 Leave Link    1 at Sat Mar 15 18:12:09 2025, MaxMem=           0 cpu:               0.0 elap:               0.0
 (Enter /opt/g16/l101.exe)
 -------------------
 Title Card Required
 -------------------
 Symbolic Z-matrix:
 Charge =  0 Multiplicity = 1
 C                     0.56314  -0.57635   0. 
 N                    -0.3752    0.35695   0. 
 H                    -0.79524  -1.09345   0. 
 
 ITRead=  0  0  0
 MicOpt= -1 -1 -1
 NAtoms=      3 NQM=        3 NQMF=       0 NMMI=      0 NMMIF=      0
                NMic=       0 NMicF=      0.
                    Isotopes and Nuclear Properties:
 (Nuclear quadrupole moments (NQMom) in fm**2, nuclear magnetic moments (NMagM)
  in nuclear magnetons)

  Atom         1           2           3
 IAtWgt=          12          14           1
 AtmWgt=  12.0000000  14.0030740   1.0078250
 NucSpn=           0           2           1
 AtZEff=  -0.0000000  -0.0000000  -0.0000000
 NQMom=    0.0000000   2.0440000   0.0000000
 NMagM=    0.0000000   0.4037610   2.7928460
 AtZNuc=   6.0000000   7.0000000   1.0000000
 Leave Link  101 at Sat Mar 15 18:12:09 2025, MaxMem=   104857600 cpu:               0.1 elap:               0.1
 (Enter /opt/g16/l106.exe)
 Numerical evaluation of force-constants.
 Nuclear step= 0.001000 Angstroms, electric field step= 0.000333 atomic units, NStep=1.
 Leave Link  106 at Sat Mar 15 18:12:09 2025, MaxMem=   104857600 cpu:               0.0 elap:               0.0
 (Enter /opt/g16/l103.exe)

 GradGradGradGradGradGradGradGradGradGradGradGradGradGradGradGradGradGrad
 Berny optimization.
 Initialization pass.
 Trust Radius=3.00D-01 FncErr=1.00D-07 GrdErr=1.00D-07 EigMax=2.50D+02 EigMin=1.00D-04
 Number of steps in this run=      2 maximum allowed number of steps=      2.
 GradGradGradGradGradGradGradGradGradGradGradGradGradGradGradGradGradGrad

 Leave Link  103 at Sat Mar 15 18:12:09 2025, MaxMem=   104857600 cpu:               0.0 elap:               0.0
 (Enter /opt/g16/l202.exe)
                          Input orientation:                          
 ---------------------------------------------------------------------
 Center     Atomic      Atomic             Coordinates (Angstroms)
 Number     Number       Type             X           Y           Z
 ---------------------------------------------------------------------
      1          6           0        0.563142   -0.576354    0.000000
      2          7           0       -0.375200    0.356947    0.000000
      3          1           0       -0.795242   -1.093454    0.000000
 ---------------------------------------------------------------------
                    Distance matrix (angstroms):
                    1          2          3
     1  C    0.000000
     2  N    1.323457   0.000000
     3  H    1.453479   1.510000   0.000000
 Symmetry turned off by external request.
 Stoichiometry    CHN
 Framework group  CS[SG(CHN)]
 Deg. of freedom     3
 Full point group                 CS      NOp   2
 Rotational constants (GHZ):         297.2856630          44.5908882          38.7749078
 Leave Link  202 at Sat Mar 15 18:12:09 2025, MaxMem=   104857600 cpu:               0.0 elap:               0.0
 (Enter /opt/g16/l301.exe)
 Standard basis: STO-3G (5D, 7F)
 Ernie: Thresh=  0.10000D-02 Tol=  0.10000D-05 Strict=F.
    11 basis functions,    33 primitive gaussians,    11 cartesian basis functions
     7 alpha electrons        7 beta electrons
       nuclear repulsion energy        21.4310725613 Hartrees.
 IExCor=    0 DFT=F Ex=HF Corr=None ExCW=0 ScaHFX=  1.000000
 ScaDFX=  1.000000  1.000000  1.000000  1.000000 ScalE2=  1.000000  1.000000
 IRadAn=      5 IRanWt=     -1 IRanGd=            0 ICorTp=0 IEmpDi=  4
 NAtoms=    3 NActive=    3 NUniq=    3 SFac= 1.00D+00 NAtFMM=   60 NAOKFM=F Big=F
 Integral buffers will be    131072 words long.
 Raffenetti 1 integral format.
 Two-electron integral symmetry is turned off.
 Leave Link  301 at Sat Mar 15 18:12:09 2025, MaxMem=   104857600 cpu:               0.0 elap:               0.1
 (Enter /opt/g16/l402.exe)
 External calculation of energy and first derivatives.
 Running external command "python3 -u ../../../src/gmm.py R"
         input file       "/home/jh-li/scratch/g16/Gau-262667.EIn"
         output file      "/home/jh-li/scratch/g16/Gau-262667.EOu"
         message file     "/home/jh-li/scratch/g16/Gau-262667.EMs"
         fchk file        "/home/jh-li/scratch/g16/Gau-262667.EFC"
         mat. el file     "/home/jh-li/scratch/g16/Gau-262667.EUF"
 Read checkpoint file mol_rohf.chk
 Write formatted file mol_rohf.fchk
!LICENCE! Warning: licence will expire on 2025/04/10
 Recovered energy= -93.0854411100     dipole=      0.000000000000      0.000000000000      0.000000000000
 Energy=    -93.0854411     NIter=   0.
 Dipole moment=       0.000000       0.000000       0.000000
 Leave Link  402 at Sat Mar 15 18:12:18 2025, MaxMem=   104857600 cpu:               0.0 elap:               9.2
 (Enter /opt/g16/l601.exe)
 Leave Link  601 at Sat Mar 15 18:12:18 2025, MaxMem=   104857600 cpu:               0.0 elap:               0.0
 (Enter /opt/g16/l716.exe)
 Dipole        = 0.00000000D+00 0.00000000D+00 0.00000000D+00
 -------------------------------------------------------------------
 Center     Atomic                   Forces (Hartrees/Bohr)
 Number     Number              X              Y              Z
 -------------------------------------------------------------------
      1        6          -0.113757350    0.074990070   -0.000000000
      2        7           0.075525400   -0.121767190   -0.000000000
      3        1           0.038231950    0.046777110   -0.000000000
 -------------------------------------------------------------------
 Cartesian Forces:  Max     0.121767190 RMS     0.068916503
 Z-matrix is all fixed cartesians, so copy forces.
 Leave Link  716 at Sat Mar 15 18:12:18 2025, MaxMem=   104857600 cpu:               0.0 elap:               0.0
 (Enter /opt/g16/l106.exe)
 NDeriv=      9 NFrqRd=  0 NDerD0=      0 MskFDP=       0 MskDFD=       0 MskDF0=       0
 At 1st pt F.D. properties file   721 does not exist.
 At 1st pt F.D. properties file   722 does not exist.
 D2Numr ... symmetry will not be used.
 Leave Link  106 at Sat Mar 15 18:12:18 2025, MaxMem=   104857600 cpu:               0.0 elap:               0.0
 (Enter /opt/g16/l301.exe)
 Standard basis: STO-3G (5D, 7F)
 Ernie: Thresh=  0.10000D-02 Tol=  0.10000D-05 Strict=F.
    11 basis functions,    33 primitive gaussians,    11 cartesian basis functions
     7 alpha electrons        7 beta electrons
       nuclear repulsion energy        21.4206745676 Hartrees.
 IExCor=    0 DFT=F Ex=HF Corr=None ExCW=0 ScaHFX=  1.000000
 ScaDFX=  1.000000  1.000000  1.000000  1.000000 ScalE2=  1.000000  1.000000
 IRadAn=      5 IRanWt=     -1 IRanGd=            0 ICorTp=0 IEmpDi=  4
 NAtoms=    3 NActive=    3 NUniq=    3 SFac= 1.00D+00 NAtFMM=   60 NAOKFM=F Big=F
 Integral buffers will be    131072 words long.
 Raffenetti 1 integral format.
 Two-electron integral symmetry is turned off.
 Leave Link  301 at Sat Mar 15 18:12:18 2025, MaxMem=   104857600 cpu:               0.0 elap:               0.0
 (Enter /opt/g16/l402.exe)
 External calculation of energy and first derivatives.
 Running external command "python3 -u ../../../src/gmm.py R"
         input file       "/home/jh-li/scratch/g16/Gau-262667.EIn"
         output file      "/home/jh-li/scratch/g16/Gau-262667.EOu"
         message file     "/home/jh-li/scratch/g16/Gau-262667.EMs"
         fchk file        "/home/jh-li/scratch/g16/Gau-262667.EFC"
         mat. el file     "/home/jh-li/scratch/g16/Gau-262667.EUF"
 Read checkpoint file mol_rohf.chk
 Write formatted file mol_rohf.fchk
!LICENCE! Warning: licence will expire on 2025/04/10
 Recovered energy= -93.0852258000     dipole=      0.000000000000      0.000000000000      0.000000000000
 Energy=    -93.0852258     NIter=   0.
 Dipole moment=       0.000000       0.000000       0.000000
 Leave Link  402 at Sat Mar 15 18:12:26 2025, MaxMem=   104857600 cpu:               0.0 elap:               7.9
 (Enter /opt/g16/l601.exe)
 Leave Link  601 at Sat Mar 15 18:12:26 2025, MaxMem=   104857600 cpu:               0.0 elap:               0.0
 (Enter /opt/g16/l716.exe)
 Dipole        = 0.00000000D+00 0.00000000D+00 0.00000000D+00
 -------------------------------------------------------------------
 Center     Atomic                   Forces (Hartrees/Bohr)
 Number     Number              X              Y              Z
 -------------------------------------------------------------------
      1        6          -0.114118910    0.075326410   -0.000000000
      2        7           0.075892900   -0.122210350   -0.000000000
      3        1           0.038226020    0.046883940   -0.000000000
 -------------------------------------------------------------------
 Cartesian Forces:  Max     0.122210350 RMS     0.069162954
 Leave Link  716 at Sat Mar 15 18:12:26 2025, MaxMem=   104857600 cpu:               0.0 elap:               0.0
 (Enter /opt/g16/l106.exe)
 NDeriv=      9 NFrqRd=  0 NDerD0=      0 MskFDP=       0 MskDFD=       0 MskDF0=       0
 Re-enter D2Numr:  atom   1 IXYZ=1 step-up   number 1
 Leave Link  106 at Sat Mar 15 18:12:26 2025, MaxMem=   104857600 cpu:               0.1 elap:               0.1
 (Enter /opt/g16/l301.exe)
 Standard basis: STO-3G (5D, 7F)
 Ernie: Thresh=  0.10000D-02 Tol=  0.10000D-05 Strict=F.
    11 basis functions,    33 primitive gaussians,    11 cartesian basis functions
     7 alpha electrons        7 beta electrons
       nuclear repulsion energy        21.4414771018 Hartrees.
 IExCor=    0 DFT=F Ex=HF Corr=None ExCW=0 ScaHFX=  1.000000
 ScaDFX=  1.000000  1.000000  1.000000  1.000000 ScalE2=  1.000000  1.000000
 IRadAn=      5 IRanWt=     -1 IRanGd=            0 ICorTp=0 IEmpDi=  4
 NAtoms=    3 NActive=    3 NUniq=    3 SFac= 1.00D+00 NAtFMM=   60 NAOKFM=F Big=F
 Integral buffers will be    131072 words long.
 Raffenetti 1 integral format.
 Two-electron integral symmetry is turned off.
 Leave Link  301 at Sat Mar 15 18:12:26 2025, MaxMem=   104857600 cpu:               0.0 elap:               0.0
 (Enter /opt/g16/l402.exe)
 External calculation of energy and first derivatives.
 Running external command "python3 -u ../../../src/gmm.py R"
         input file       "/home/jh-li/scratch/g16/Gau-262667.EIn"
         output file      "/home/jh-li/scratch/g16/Gau-262667.EOu"
         message file     "/home/jh-li/scratch/g16/Gau-262667.EMs"
         fchk file        "/home/jh-li/scratch/g16/Gau-262667.EFC"
         mat. el file     "/home/jh-li/scratch/g16/Gau-262667.EUF"
 Read checkpoint file mol_rohf.chk
 Write formatted file mol_rohf.fchk
!LICENCE! Warning: licence will expire on 2025/04/10
 Recovered energy= -93.0856557400     dipole=      0.000000000000      0.000000000000      0.000000000000
 Energy=    -93.0856557     NIter=   0.
 Dipole moment=       0.000000       0.000000       0.000000
 Leave Link  402 at Sat Mar 15 18:12:33 2025, MaxMem=   104857600 cpu:               0.0 elap:               6.9
 (Enter /opt/g16/l601.exe)
 Leave Link  601 at Sat Mar 15 18:12:33 2025, MaxMem=   104857600 cpu:               0.0 elap:               0.0
 (Enter /opt/g16/l716.exe)
 Dipole        = 0.00000000D+00 0.00000000D+00 0.00000000D+00
 -------------------------------------------------------------------
 Center     Atomic                   Forces (Hartrees/Bohr)
 Number     Number              X              Y              Z
 -------------------------------------------------------------------
      1        6          -0.113394230    0.074651540   -0.000000000
      2        7           0.075156520   -0.121321390   -0.000000000
      3        1           0.038237720    0.046669860   -0.000000000
 -------------------------------------------------------------------
 Cartesian Forces:  Max     0.121321390 RMS     0.068668839
 Leave Link  716 at Sat Mar 15 18:12:33 2025, MaxMem=   104857600 cpu:               0.0 elap:               0.0
 (Enter /opt/g16/l106.exe)
 NDeriv=      9 NFrqRd=  0 NDerD0=      0 MskFDP=       0 MskDFD=       0 MskDF0=       0
 Re-enter D2Numr:  atom   1 IXYZ=1 step-down number 1
 Leave Link  106 at Sat Mar 15 18:12:34 2025, MaxMem=   104857600 cpu:               0.1 elap:               0.1
 (Enter /opt/g16/l301.exe)
 Standard basis: STO-3G (5D, 7F)
 Ernie: Thresh=  0.10000D-02 Tol=  0.10000D-05 Strict=F.
    11 basis functions,    33 primitive gaussians,    11 cartesian basis functions
     7 alpha electrons        7 beta electrons
       nuclear repulsion energy        21.4394882593 Hartrees.
 IExCor=    0 DFT=F Ex=HF Corr=None ExCW=0 ScaHFX=  1.000000
 ScaDFX=  1.000000  1.000000  1.000000  1.000000 ScalE2=  1.000000  1.000000
 IRadAn=      5 IRanWt=     -1 IRanGd=            0 ICorTp=0 IEmpDi=  4
 NAtoms=    3 NActive=    3 NUniq=    3 SFac= 1.00D+00 NAtFMM=   60 NAOKFM=F Big=F
 Integral buffers will be    131072 words long.
 Raffenetti 1 integral format.
 Two-electron integral symmetry is turned off.
 Leave Link  301 at Sat Mar 15 18:12:34 2025, MaxMem=   104857600 cpu:               0.1 elap:               0.0
 (Enter /opt/g16/l402.exe)
 External calculation of energy and first derivatives.
 Running external command "python3 -u ../../../src/gmm.py R"
         input file       "/home/jh-li/scratch/g16/Gau-262667.EIn"
         output file      "/home/jh-li/scratch/g16/Gau-262667.EOu"
         message file     "/home/jh-li/scratch/g16/Gau-262667.EMs"
         fchk file        "/home/jh-li/scratch/g16/Gau-262667.EFC"
         mat. el file     "/home/jh-li/scratch/g16/Gau-262667.EUF"
 Read checkpoint file mol_rohf.chk
 Write formatted file mol_rohf.fchk
!LICENCE! Warning: licence will expire on 2025/04/10
 Recovered energy= -93.0855823600     dipole=      0.000000000000      0.000000000000      0.000000000000
 Energy=    -93.0855824     NIter=   0.
 Dipole moment=       0.000000       0.000000       0.000000
 Leave Link  402 at Sat Mar 15 18:12:42 2025, MaxMem=   104857600 cpu:               0.0 elap:               8.1
 (Enter /opt/g16/l601.exe)
 Leave Link  601 at Sat Mar 15 18:12:42 2025, MaxMem=   104857600 cpu:               0.0 elap:               0.0
 (Enter /opt/g16/l716.exe)
 Dipole        = 0.00000000D+00 0.00000000D+00 0.00000000D+00
 -------------------------------------------------------------------
 Center     Atomic                   Forces (Hartrees/Bohr)
 Number     Number              X              Y              Z
 -------------------------------------------------------------------
      1        6          -0.113418580    0.074497560   -0.000000000
      2        7           0.075147630   -0.121331820   -0.000000000
      3        1           0.038270940    0.046834260   -0.000000000
 -------------------------------------------------------------------
 Cartesian Forces:  Max     0.121331820 RMS     0.068670186
 Leave Link  716 at Sat Mar 15 18:12:42 2025, MaxMem=   104857600 cpu:               0.0 elap:               0.0
 (Enter /opt/g16/l106.exe)
 NDeriv=      9 NFrqRd=  0 NDerD0=      0 MskFDP=       0 MskDFD=       0 MskDF0=       0
 Re-enter D2Numr:  atom   1 IXYZ=2 step-up   number 1
 Leave Link  106 at Sat Mar 15 18:12:42 2025, MaxMem=   104857600 cpu:               0.1 elap:               0.1
 (Enter /opt/g16/l301.exe)
 Standard basis: STO-3G (5D, 7F)
 Ernie: Thresh=  0.10000D-02 Tol=  0.10000D-05 Strict=F.
    11 basis functions,    33 primitive gaussians,    11 cartesian basis functions
     7 alpha electrons        7 beta electrons
       nuclear repulsion energy        21.4226609384 Hartrees.
 IExCor=    0 DFT=F Ex=HF Corr=None ExCW=0 ScaHFX=  1.000000
 ScaDFX=  1.000000  1.000000  1.000000  1.000000 ScalE2=  1.000000  1.000000
 IRadAn=      5 IRanWt=     -1 IRanGd=            0 ICorTp=0 IEmpDi=  4
 NAtoms=    3 NActive=    3 NUniq=    3 SFac= 1.00D+00 NAtFMM=   60 NAOKFM=F Big=F
 Integral buffers will be    131072 words long.
 Raffenetti 1 integral format.
 Two-electron integral symmetry is turned off.
 Leave Link  301 at Sat Mar 15 18:12:42 2025, MaxMem=   104857600 cpu:               0.0 elap:               0.0
 (Enter /opt/g16/l402.exe)
 External calculation of energy and first derivatives.
 Running external command "python3 -u ../../../src/gmm.py R"
         input file       "/home/jh-li/scratch/g16/Gau-262667.EIn"
         output file      "/home/jh-li/scratch/g16/Gau-262667.EOu"
         message file     "/home/jh-li/scratch/g16/Gau-262667.EMs"
         fchk file        "/home/jh-li/scratch/g16/Gau-262667.EFC"
         mat. el file     "/home/jh-li/scratch/g16/Gau-262667.EUF"
 Read checkpoint file mol_rohf.chk
 Write formatted file mol_rohf.fchk
!LICENCE! Warning: licence will expire on 2025/04/10
 Recovered energy= -93.0852989400     dipole=      0.000000000000      0.000000000000      0.000000000000
 Energy=    -93.0852989     NIter=   0.
 Dipole moment=       0.000000       0.000000       0.000000
 Leave Link  402 at Sat Mar 15 18:12:50 2025, MaxMem=   104857600 cpu:               0.0 elap:               8.0
 (Enter /opt/g16/l601.exe)
 Leave Link  601 at Sat Mar 15 18:12:50 2025, MaxMem=   104857600 cpu:               0.0 elap:               0.0
 (Enter /opt/g16/l716.exe)
 Dipole        = 0.00000000D+00 0.00000000D+00 0.00000000D+00
 -------------------------------------------------------------------
 Center     Atomic                   Forces (Hartrees/Bohr)
 Number     Number              X              Y              Z
 -------------------------------------------------------------------
      1        6          -0.114093450    0.075480790   -0.000000000
      2        7           0.075900570   -0.122200810   -0.000000000
      3        1           0.038192880    0.046720020   -0.000000000
 -------------------------------------------------------------------
 Cartesian Forces:  Max     0.122200810 RMS     0.069161691
 Leave Link  716 at Sat Mar 15 18:12:50 2025, MaxMem=   104857600 cpu:               0.0 elap:               0.0
 (Enter /opt/g16/l106.exe)
 NDeriv=      9 NFrqRd=  0 NDerD0=      0 MskFDP=       0 MskDFD=       0 MskDF0=       0
 Re-enter D2Numr:  atom   1 IXYZ=2 step-down number 1
 Leave Link  106 at Sat Mar 15 18:12:50 2025, MaxMem=   104857600 cpu:               0.1 elap:               0.1
 (Enter /opt/g16/l301.exe)
 Standard basis: STO-3G (5D, 7F)
 Ernie: Thresh=  0.10000D-02 Tol=  0.10000D-05 Strict=F.
    11 basis functions,    33 primitive gaussians,    11 cartesian basis functions
     7 alpha electrons        7 beta electrons
       nuclear repulsion energy        21.4310672504 Hartrees.
 IExCor=    0 DFT=F Ex=HF Corr=None ExCW=0 ScaHFX=  1.000000
 ScaDFX=  1.000000  1.000000  1.000000  1.000000 ScalE2=  1.000000  1.000000
 IRadAn=      5 IRanWt=     -1 IRanGd=            0 ICorTp=0 IEmpDi=  4
 NAtoms=    3 NActive=    3 NUniq=    3 SFac= 1.00D+00 NAtFMM=   60 NAOKFM=F Big=F
 Integral buffers will be    131072 words long.
 Raffenetti 1 integral format.
 Two-electron integral symmetry is turned off.
 Leave Link  301 at Sat Mar 15 18:12:50 2025, MaxMem=   104857600 cpu:               0.0 elap:               0.0
 (Enter /opt/g16/l402.exe)
 External calculation of energy and first derivatives.
 Running external command "python3 -u ../../../src/gmm.py R"
         input file       "/home/jh-li/scratch/g16/Gau-262667.EIn"
         output file      "/home/jh-li/scratch/g16/Gau-262667.EOu"
         message file     "/home/jh-li/scratch/g16/Gau-262667.EMs"
         fchk file        "/home/jh-li/scratch/g16/Gau-262667.EFC"
         mat. el file     "/home/jh-li/scratch/g16/Gau-262667.EUF"
 Read checkpoint file mol_rohf.chk
 Write formatted file mol_rohf.fchk
!LICENCE! Warning: licence will expire on 2025/04/10
 Recovered energy= -93.0854410000     dipole=      0.000000000000      0.000000000000      0.000000000000
 Energy=    -93.0854410     NIter=   0.
 Dipole moment=       0.000000       0.000000       0.000000
 Leave Link  402 at Sat Mar 15 18:12:58 2025, MaxMem=   104857600 cpu:               0.0 elap:               8.0
 (Enter /opt/g16/l601.exe)
 Leave Link  601 at Sat Mar 15 18:12:58 2025, MaxMem=   104857600 cpu:               0.0 elap:               0.0
 (Enter /opt/g16/l716.exe)
 Dipole        = 0.00000000D+00 0.00000000D+00 0.00000000D+00
 -------------------------------------------------------------------
 Center     Atomic                   Forces (Hartrees/Bohr)
 Number     Number              X              Y              Z
 -------------------------------------------------------------------
      1        6          -0.113757490    0.074990260   -0.000112089
      2        7           0.075525560   -0.121767410    0.000091665
      3        1           0.038231930    0.046777150    0.000020424
 -------------------------------------------------------------------
 Cartesian Forces:  Max     0.121767410 RMS     0.068916634
 Leave Link  716 at Sat Mar 15 18:12:58 2025, MaxMem=   104857600 cpu:               0.0 elap:               0.0
 (Enter /opt/g16/l106.exe)
 NDeriv=      9 NFrqRd=  0 NDerD0=      0 MskFDP=       0 MskDFD=       0 MskDF0=       0
 Re-enter D2Numr:  atom   1 IXYZ=3 step-up   number 1
 Leave Link  106 at Sat Mar 15 18:12:58 2025, MaxMem=   104857600 cpu:               0.1 elap:               0.1
 (Enter /opt/g16/l301.exe)
 Standard basis: STO-3G (5D, 7F)
 Ernie: Thresh=  0.10000D-02 Tol=  0.10000D-05 Strict=F.
    11 basis functions,    33 primitive gaussians,    11 cartesian basis functions
     7 alpha electrons        7 beta electrons
       nuclear repulsion energy        21.4310672504 Hartrees.
 IExCor=    0 DFT=F Ex=HF Corr=None ExCW=0 ScaHFX=  1.000000
 ScaDFX=  1.000000  1.000000  1.000000  1.000000 ScalE2=  1.000000  1.000000
 IRadAn=      5 IRanWt=     -1 IRanGd=            0 ICorTp=0 IEmpDi=  4
 NAtoms=    3 NActive=    3 NUniq=    3 SFac= 1.00D+00 NAtFMM=   60 NAOKFM=F Big=F
 Integral buffers will be    131072 words long.
 Raffenetti 1 integral format.
 Two-electron integral symmetry is turned off.
 Leave Link  301 at Sat Mar 15 18:12:58 2025, MaxMem=   104857600 cpu:               0.0 elap:               0.0
 (Enter /opt/g16/l402.exe)
 External calculation of energy and first derivatives.
 Running external command "python3 -u ../../../src/gmm.py R"
         input file       "/home/jh-li/scratch/g16/Gau-262667.EIn"
         output file      "/home/jh-li/scratch/g16/Gau-262667.EOu"
         message file     "/home/jh-li/scratch/g16/Gau-262667.EMs"
         fchk file        "/home/jh-li/scratch/g16/Gau-262667.EFC"
         mat. el file     "/home/jh-li/scratch/g16/Gau-262667.EUF"
 Read checkpoint file mol_rohf.chk
 Write formatted file mol_rohf.fchk
!LICENCE! Warning: licence will expire on 2025/04/10
 Recovered energy= -93.0854410000     dipole=      0.000000000000      0.000000000000      0.000000000000
 Energy=    -93.0854410     NIter=   0.
 Dipole moment=       0.000000       0.000000       0.000000
 Leave Link  402 at Sat Mar 15 18:13:05 2025, MaxMem=   104857600 cpu:               0.0 elap:               6.8
 (Enter /opt/g16/l601.exe)
 Leave Link  601 at Sat Mar 15 18:13:05 2025, MaxMem=   104857600 cpu:               0.0 elap:               0.0
 (Enter /opt/g16/l716.exe)
 Dipole        = 0.00000000D+00 0.00000000D+00 0.00000000D+00
 -------------------------------------------------------------------
 Center     Atomic                   Forces (Hartrees/Bohr)
 Number     Number              X              Y              Z
 -------------------------------------------------------------------
      1        6          -0.113757490    0.074990260    0.000112089
      2        7           0.075525560   -0.121767410   -0.000091665
      3        1           0.038231930    0.046777150   -0.000020424
 -------------------------------------------------------------------
 Cartesian Forces:  Max     0.121767410 RMS     0.068916634
 Leave Link  716 at Sat Mar 15 18:13:05 2025, MaxMem=   104857600 cpu:               0.0 elap:               0.0
 (Enter /opt/g16/l106.exe)
 NDeriv=      9 NFrqRd=  0 NDerD0=      0 MskFDP=       0 MskDFD=       0 MskDF0=       0
 Re-enter D2Numr:  atom   1 IXYZ=3 step-down number 1
 Finish atom      1 at Sat Mar 15 18:13:05 2025
 Leave Link  106 at Sat Mar 15 18:13:05 2025, MaxMem=   104857600 cpu:               0.1 elap:               0.1
 (Enter /opt/g16/l301.exe)
 Standard basis: STO-3G (5D, 7F)
 Ernie: Thresh=  0.10000D-02 Tol=  0.10000D-05 Strict=F.
    11 basis functions,    33 primitive gaussians,    11 cartesian basis functions
     7 alpha electrons        7 beta electrons
       nuclear repulsion energy        21.4396193435 Hartrees.
 IExCor=    0 DFT=F Ex=HF Corr=None ExCW=0 ScaHFX=  1.000000
 ScaDFX=  1.000000  1.000000  1.000000  1.000000 ScalE2=  1.000000  1.000000
 IRadAn=      5 IRanWt=     -1 IRanGd=            0 ICorTp=0 IEmpDi=  4
 NAtoms=    3 NActive=    3 NUniq=    3 SFac= 1.00D+00 NAtFMM=   60 NAOKFM=F Big=F
 Integral buffers will be    131072 words long.
 Raffenetti 1 integral format.
 Two-electron integral symmetry is turned off.
 Leave Link  301 at Sat Mar 15 18:13:05 2025, MaxMem=   104857600 cpu:               0.0 elap:               0.0
 (Enter /opt/g16/l402.exe)
 External calculation of energy and first derivatives.
 Running external command "python3 -u ../../../src/gmm.py R"
         input file       "/home/jh-li/scratch/g16/Gau-262667.EIn"
         output file      "/home/jh-li/scratch/g16/Gau-262667.EOu"
         message file     "/home/jh-li/scratch/g16/Gau-262667.EMs"
         fchk file        "/home/jh-li/scratch/g16/Gau-262667.EFC"
         mat. el file     "/home/jh-li/scratch/g16/Gau-262667.EUF"
 Read checkpoint file mol_rohf.chk
 Write formatted file mol_rohf.fchk
!LICENCE! Warning: licence will expire on 2025/04/10
 Recovered energy= -93.0855834000     dipole=      0.000000000000      0.000000000000      0.000000000000
 Energy=    -93.0855834     NIter=   0.
 Dipole moment=       0.000000       0.000000       0.000000
 Leave Link  402 at Sat Mar 15 18:13:13 2025, MaxMem=   104857600 cpu:               0.0 elap:               8.0
 (Enter /opt/g16/l601.exe)
 Leave Link  601 at Sat Mar 15 18:13:13 2025, MaxMem=   104857600 cpu:               0.0 elap:               0.0
 (Enter /opt/g16/l716.exe)
 Dipole        = 0.00000000D+00 0.00000000D+00 0.00000000D+00
 -------------------------------------------------------------------
 Center     Atomic                   Forces (Hartrees/Bohr)
 Number     Number              X              Y              Z
 -------------------------------------------------------------------
      1        6          -0.113388420    0.074612350   -0.000000000
      2        7           0.075072030   -0.121368020   -0.000000000
      3        1           0.038316380    0.046755660   -0.000000000
 -------------------------------------------------------------------
 Cartesian Forces:  Max     0.121368020 RMS     0.068673284
 Leave Link  716 at Sat Mar 15 18:13:13 2025, MaxMem=   104857600 cpu:               0.0 elap:               0.0
 (Enter /opt/g16/l106.exe)
 NDeriv=      9 NFrqRd=  0 NDerD0=      0 MskFDP=       0 MskDFD=       0 MskDF0=       0
 Re-enter D2Numr:  atom   2 IXYZ=1 step-up   number 1
 Leave Link  106 at Sat Mar 15 18:13:13 2025, MaxMem=   104857600 cpu:               0.1 elap:               0.1
 (Enter /opt/g16/l301.exe)
 Standard basis: STO-3G (5D, 7F)
 Ernie: Thresh=  0.10000D-02 Tol=  0.10000D-05 Strict=F.
    11 basis functions,    33 primitive gaussians,    11 cartesian basis functions
     7 alpha electrons        7 beta electrons
       nuclear repulsion energy        21.4225298244 Hartrees.
 IExCor=    0 DFT=F Ex=HF Corr=None ExCW=0 ScaHFX=  1.000000
 ScaDFX=  1.000000  1.000000  1.000000  1.000000 ScalE2=  1.000000  1.000000
 IRadAn=      5 IRanWt=     -1 IRanGd=            0 ICorTp=0 IEmpDi=  4
 NAtoms=    3 NActive=    3 NUniq=    3 SFac= 1.00D+00 NAtFMM=   60 NAOKFM=F Big=F
 Integral buffers will be    131072 words long.
 Raffenetti 1 integral format.
 Two-electron integral symmetry is turned off.
 Leave Link  301 at Sat Mar 15 18:13:13 2025, MaxMem=   104857600 cpu:               0.0 elap:               0.0
 (Enter /opt/g16/l402.exe)
 External calculation of energy and first derivatives.
 Running external command "python3 -u ../../../src/gmm.py R"
         input file       "/home/jh-li/scratch/g16/Gau-262667.EIn"
         output file      "/home/jh-li/scratch/g16/Gau-262667.EOu"
         message file     "/home/jh-li/scratch/g16/Gau-262667.EMs"
         fchk file        "/home/jh-li/scratch/g16/Gau-262667.EFC"
         mat. el file     "/home/jh-li/scratch/g16/Gau-262667.EUF"
 Read checkpoint file mol_rohf.chk
 Write formatted file mol_rohf.fchk
!LICENCE! Warning: licence will expire on 2025/04/10
 Recovered energy= -93.0852979600     dipole=      0.000000000000      0.000000000000      0.000000000000
 Energy=    -93.0852980     NIter=   0.
 Dipole moment=       0.000000       0.000000       0.000000
 Leave Link  402 at Sat Mar 15 18:13:21 2025, MaxMem=   104857600 cpu:               0.0 elap:               8.0
 (Enter /opt/g16/l601.exe)
 Leave Link  601 at Sat Mar 15 18:13:21 2025, MaxMem=   104857600 cpu:               0.0 elap:               0.0
 (Enter /opt/g16/l716.exe)
 Dipole        = 0.00000000D+00 0.00000000D+00 0.00000000D+00
 -------------------------------------------------------------------
 Center     Atomic                   Forces (Hartrees/Bohr)
 Number     Number              X              Y              Z
 -------------------------------------------------------------------
      1        6          -0.114124800    0.075365290   -0.000000000
      2        7           0.075977210   -0.122163700   -0.000000000
      3        1           0.038147590    0.046798410   -0.000000000
 -------------------------------------------------------------------
 Cartesian Forces:  Max     0.122163700 RMS     0.069158620
 Leave Link  716 at Sat Mar 15 18:13:21 2025, MaxMem=   104857600 cpu:               0.0 elap:               0.0
 (Enter /opt/g16/l106.exe)
 NDeriv=      9 NFrqRd=  0 NDerD0=      0 MskFDP=       0 MskDFD=       0 MskDF0=       0
 Re-enter D2Numr:  atom   2 IXYZ=1 step-down number 1
 Leave Link  106 at Sat Mar 15 18:13:21 2025, MaxMem=   104857600 cpu:               0.1 elap:               0.1
 (Enter /opt/g16/l301.exe)
 Standard basis: STO-3G (5D, 7F)
 Ernie: Thresh=  0.10000D-02 Tol=  0.10000D-05 Strict=F.
    11 basis functions,    33 primitive gaussians,    11 cartesian basis functions
     7 alpha electrons        7 beta electrons
       nuclear repulsion energy        21.4205670479 Hartrees.
 IExCor=    0 DFT=F Ex=HF Corr=None ExCW=0 ScaHFX=  1.000000
 ScaDFX=  1.000000  1.000000  1.000000  1.000000 ScalE2=  1.000000  1.000000
 IRadAn=      5 IRanWt=     -1 IRanGd=            0 ICorTp=0 IEmpDi=  4
 NAtoms=    3 NActive=    3 NUniq=    3 SFac= 1.00D+00 NAtFMM=   60 NAOKFM=F Big=F
 Integral buffers will be    131072 words long.
 Raffenetti 1 integral format.
 Two-electron integral symmetry is turned off.
 Leave Link  301 at Sat Mar 15 18:13:22 2025, MaxMem=   104857600 cpu:               0.0 elap:               0.0
 (Enter /opt/g16/l402.exe)
 External calculation of energy and first derivatives.
 Running external command "python3 -u ../../../src/gmm.py R"
         input file       "/home/jh-li/scratch/g16/Gau-262667.EIn"
         output file      "/home/jh-li/scratch/g16/Gau-262667.EOu"
         message file     "/home/jh-li/scratch/g16/Gau-262667.EMs"
         fchk file        "/home/jh-li/scratch/g16/Gau-262667.EFC"
         mat. el file     "/home/jh-li/scratch/g16/Gau-262667.EUF"
 Read checkpoint file mol_rohf.chk
 Write formatted file mol_rohf.fchk
!LICENCE! Warning: licence will expire on 2025/04/10
 Recovered energy= -93.0852106300     dipole=      0.000000000000      0.000000000000      0.000000000000
 Energy=    -93.0852106     NIter=   0.
 Dipole moment=       0.000000       0.000000       0.000000
 Leave Link  402 at Sat Mar 15 18:13:30 2025, MaxMem=   104857600 cpu:               0.0 elap:               8.1
 (Enter /opt/g16/l601.exe)
 Leave Link  601 at Sat Mar 15 18:13:30 2025, MaxMem=   104857600 cpu:               0.0 elap:               0.0
 (Enter /opt/g16/l716.exe)
 Dipole        = 0.00000000D+00 0.00000000D+00 0.00000000D+00
 -------------------------------------------------------------------
 Center     Atomic                   Forces (Hartrees/Bohr)
 Number     Number              X              Y              Z
 -------------------------------------------------------------------
      1        6          -0.114200520    0.075423720   -0.000000000
      2        7           0.075921960   -0.122165070   -0.000000000
      3        1           0.038278560    0.046741350   -0.000000000
 -------------------------------------------------------------------
 Cartesian Forces:  Max     0.122165070 RMS     0.069176864
 Leave Link  716 at Sat Mar 15 18:13:30 2025, MaxMem=   104857600 cpu:               0.0 elap:               0.0
 (Enter /opt/g16/l106.exe)
 NDeriv=      9 NFrqRd=  0 NDerD0=      0 MskFDP=       0 MskDFD=       0 MskDF0=       0
 Re-enter D2Numr:  atom   2 IXYZ=2 step-up   number 1
 Leave Link  106 at Sat Mar 15 18:13:30 2025, MaxMem=   104857600 cpu:               0.0 elap:               0.1
 (Enter /opt/g16/l301.exe)
 Standard basis: STO-3G (5D, 7F)
 Ernie: Thresh=  0.10000D-02 Tol=  0.10000D-05 Strict=F.
    11 basis functions,    33 primitive gaussians,    11 cartesian basis functions
     7 alpha electrons        7 beta electrons
       nuclear repulsion energy        21.4415846933 Hartrees.
 IExCor=    0 DFT=F Ex=HF Corr=None ExCW=0 ScaHFX=  1.000000
 ScaDFX=  1.000000  1.000000  1.000000  1.000000 ScalE2=  1.000000  1.000000
 IRadAn=      5 IRanWt=     -1 IRanGd=            0 ICorTp=0 IEmpDi=  4
 NAtoms=    3 NActive=    3 NUniq=    3 SFac= 1.00D+00 NAtFMM=   60 NAOKFM=F Big=F
 Integral buffers will be    131072 words long.
 Raffenetti 1 integral format.
 Two-electron integral symmetry is turned off.
 Leave Link  301 at Sat Mar 15 18:13:30 2025, MaxMem=   104857600 cpu:               0.0 elap:               0.0
 (Enter /opt/g16/l402.exe)
 External calculation of energy and first derivatives.
 Running external command "python3 -u ../../../src/gmm.py R"
         input file       "/home/jh-li/scratch/g16/Gau-262667.EIn"
         output file      "/home/jh-li/scratch/g16/Gau-262667.EOu"
         message file     "/home/jh-li/scratch/g16/Gau-262667.EMs"
         fchk file        "/home/jh-li/scratch/g16/Gau-262667.EFC"
         mat. el file     "/home/jh-li/scratch/g16/Gau-262667.EUF"
 Read checkpoint file mol_rohf.chk
 Write formatted file mol_rohf.fchk
!LICENCE! Warning: licence will expire on 2025/04/10
 Recovered energy= -93.0856708400     dipole=      0.000000000000      0.000000000000      0.000000000000
 Energy=    -93.0856708     NIter=   0.
 Dipole moment=       0.000000       0.000000       0.000000
 Leave Link  402 at Sat Mar 15 18:13:37 2025, MaxMem=   104857600 cpu:               0.0 elap:               6.8
 (Enter /opt/g16/l601.exe)
 Leave Link  601 at Sat Mar 15 18:13:37 2025, MaxMem=   104857600 cpu:               0.0 elap:               0.0
 (Enter /opt/g16/l716.exe)
 Dipole        = 0.00000000D+00 0.00000000D+00 0.00000000D+00
 -------------------------------------------------------------------
 Center     Atomic                   Forces (Hartrees/Bohr)
 Number     Number              X              Y              Z
 -------------------------------------------------------------------
      1        6          -0.113311560    0.074554720   -0.000000000
      2        7           0.075126280   -0.121367510   -0.000000000
      3        1           0.038185280    0.046812780   -0.000000000
 -------------------------------------------------------------------
 Cartesian Forces:  Max     0.121367510 RMS     0.068654933
 Leave Link  716 at Sat Mar 15 18:13:37 2025, MaxMem=   104857600 cpu:               0.0 elap:               0.0
 (Enter /opt/g16/l106.exe)
 NDeriv=      9 NFrqRd=  0 NDerD0=      0 MskFDP=       0 MskDFD=       0 MskDF0=       0
 Re-enter D2Numr:  atom   2 IXYZ=2 step-down number 1
 Leave Link  106 at Sat Mar 15 18:13:37 2025, MaxMem=   104857600 cpu:               0.1 elap:               0.1
 (Enter /opt/g16/l301.exe)
 Standard basis: STO-3G (5D, 7F)
 Ernie: Thresh=  0.10000D-02 Tol=  0.10000D-05 Strict=F.
    11 basis functions,    33 primitive gaussians,    11 cartesian basis functions
     7 alpha electrons        7 beta electrons
       nuclear repulsion energy        21.4310672295 Hartrees.
 IExCor=    0 DFT=F Ex=HF Corr=None ExCW=0 ScaHFX=  1.000000
 ScaDFX=  1.000000  1.000000  1.000000  1.000000 ScalE2=  1.000000  1.000000
 IRadAn=      5 IRanWt=     -1 IRanGd=            0 ICorTp=0 IEmpDi=  4
 NAtoms=    3 NActive=    3 NUniq=    3 SFac= 1.00D+00 NAtFMM=   60 NAOKFM=F Big=F
 Integral buffers will be    131072 words long.
 Raffenetti 1 integral format.
 Two-electron integral symmetry is turned off.
 Leave Link  301 at Sat Mar 15 18:13:37 2025, MaxMem=   104857600 cpu:               0.0 elap:               0.0
 (Enter /opt/g16/l402.exe)
 External calculation of energy and first derivatives.
 Running external command "python3 -u ../../../src/gmm.py R"
         input file       "/home/jh-li/scratch/g16/Gau-262667.EIn"
         output file      "/home/jh-li/scratch/g16/Gau-262667.EOu"
         message file     "/home/jh-li/scratch/g16/Gau-262667.EMs"
         fchk file        "/home/jh-li/scratch/g16/Gau-262667.EFC"
         mat. el file     "/home/jh-li/scratch/g16/Gau-262667.EUF"
 Read checkpoint file mol_rohf.chk
 Write formatted file mol_rohf.fchk
!LICENCE! Warning: licence will expire on 2025/04/10
 Recovered energy= -93.0854410000     dipole=      0.000000000000      0.000000000000      0.000000000000
 Energy=    -93.0854410     NIter=   0.
 Dipole moment=       0.000000       0.000000       0.000000
 Leave Link  402 at Sat Mar 15 18:13:45 2025, MaxMem=   104857600 cpu:               0.0 elap:               8.0
 (Enter /opt/g16/l601.exe)
 Leave Link  601 at Sat Mar 15 18:13:45 2025, MaxMem=   104857600 cpu:               0.0 elap:               0.0
 (Enter /opt/g16/l716.exe)
 Dipole        = 0.00000000D+00 0.00000000D+00 0.00000000D+00
 -------------------------------------------------------------------
 Center     Atomic                   Forces (Hartrees/Bohr)
 Number     Number              X              Y              Z
 -------------------------------------------------------------------
      1        6          -0.113757560    0.074990260    0.000091665
      2        7           0.075525600   -0.121767360   -0.000116634
      3        1           0.038231960    0.046777090    0.000024970
 -------------------------------------------------------------------
 Cartesian Forces:  Max     0.121767360 RMS     0.068916640
 Leave Link  716 at Sat Mar 15 18:13:45 2025, MaxMem=   104857600 cpu:               0.0 elap:               0.0
 (Enter /opt/g16/l106.exe)
 NDeriv=      9 NFrqRd=  0 NDerD0=      0 MskFDP=       0 MskDFD=       0 MskDF0=       0
 Re-enter D2Numr:  atom   2 IXYZ=3 step-up   number 1
 Leave Link  106 at Sat Mar 15 18:13:45 2025, MaxMem=   104857600 cpu:               0.0 elap:               0.1
 (Enter /opt/g16/l301.exe)
 Standard basis: STO-3G (5D, 7F)
 Ernie: Thresh=  0.10000D-02 Tol=  0.10000D-05 Strict=F.
    11 basis functions,    33 primitive gaussians,    11 cartesian basis functions
     7 alpha electrons        7 beta electrons
       nuclear repulsion energy        21.4310672295 Hartrees.
 IExCor=    0 DFT=F Ex=HF Corr=None ExCW=0 ScaHFX=  1.000000
 ScaDFX=  1.000000  1.000000  1.000000  1.000000 ScalE2=  1.000000  1.000000
 IRadAn=      5 IRanWt=     -1 IRanGd=            0 ICorTp=0 IEmpDi=  4
 NAtoms=    3 NActive=    3 NUniq=    3 SFac= 1.00D+00 NAtFMM=   60 NAOKFM=F Big=F
 Integral buffers will be    131072 words long.
 Raffenetti 1 integral format.
 Two-electron integral symmetry is turned off.
 Leave Link  301 at Sat Mar 15 18:13:45 2025, MaxMem=   104857600 cpu:               0.0 elap:               0.0
 (Enter /opt/g16/l402.exe)
 External calculation of energy and first derivatives.
 Running external command "python3 -u ../../../src/gmm.py R"
         input file       "/home/jh-li/scratch/g16/Gau-262667.EIn"
         output file      "/home/jh-li/scratch/g16/Gau-262667.EOu"
         message file     "/home/jh-li/scratch/g16/Gau-262667.EMs"
         fchk file        "/home/jh-li/scratch/g16/Gau-262667.EFC"
         mat. el file     "/home/jh-li/scratch/g16/Gau-262667.EUF"
 Read checkpoint file mol_rohf.chk
 Write formatted file mol_rohf.fchk
!LICENCE! Warning: licence will expire on 2025/04/10
 Recovered energy= -93.0854410000     dipole=      0.000000000000      0.000000000000      0.000000000000
 Energy=    -93.0854410     NIter=   0.
 Dipole moment=       0.000000       0.000000       0.000000
 Leave Link  402 at Sat Mar 15 18:13:53 2025, MaxMem=   104857600 cpu:               0.0 elap:               8.0
 (Enter /opt/g16/l601.exe)
 Leave Link  601 at Sat Mar 15 18:13:53 2025, MaxMem=   104857600 cpu:               0.0 elap:               0.0
 (Enter /opt/g16/l716.exe)
 Dipole        = 0.00000000D+00 0.00000000D+00 0.00000000D+00
 -------------------------------------------------------------------
 Center     Atomic                   Forces (Hartrees/Bohr)
 Number     Number              X              Y              Z
 -------------------------------------------------------------------
      1        6          -0.113757560    0.074990260   -0.000091665
      2        7           0.075525600   -0.121767360    0.000116634
      3        1           0.038231960    0.046777090   -0.000024970
 -------------------------------------------------------------------
 Cartesian Forces:  Max     0.121767360 RMS     0.068916640
 Leave Link  716 at Sat Mar 15 18:13:53 2025, MaxMem=   104857600 cpu:               0.0 elap:               0.0
 (Enter /opt/g16/l106.exe)
 NDeriv=      9 NFrqRd=  0 NDerD0=      0 MskFDP=       0 MskDFD=       0 MskDF0=       0
 Re-enter D2Numr:  atom   2 IXYZ=3 step-down number 1
 Finish atom      2 at Sat Mar 15 18:13:53 2025
 Leave Link  106 at Sat Mar 15 18:13:53 2025, MaxMem=   104857600 cpu:               0.0 elap:               0.1
 (Enter /opt/g16/l301.exe)
 Standard basis: STO-3G (5D, 7F)
 Ernie: Thresh=  0.10000D-02 Tol=  0.10000D-05 Strict=F.
    11 basis functions,    33 primitive gaussians,    11 cartesian basis functions
     7 alpha electrons        7 beta electrons
       nuclear repulsion energy        21.4329294935 Hartrees.
 IExCor=    0 DFT=F Ex=HF Corr=None ExCW=0 ScaHFX=  1.000000
 ScaDFX=  1.000000  1.000000  1.000000  1.000000 ScalE2=  1.000000  1.000000
 IRadAn=      5 IRanWt=     -1 IRanGd=            0 ICorTp=0 IEmpDi=  4
 NAtoms=    3 NActive=    3 NUniq=    3 SFac= 1.00D+00 NAtFMM=   60 NAOKFM=F Big=F
 Integral buffers will be    131072 words long.
 Raffenetti 1 integral format.
 Two-electron integral symmetry is turned off.
 Leave Link  301 at Sat Mar 15 18:13:53 2025, MaxMem=   104857600 cpu:               0.0 elap:               0.0
 (Enter /opt/g16/l402.exe)
 External calculation of energy and first derivatives.
 Running external command "python3 -u ../../../src/gmm.py R"
         input file       "/home/jh-li/scratch/g16/Gau-262667.EIn"
         output file      "/home/jh-li/scratch/g16/Gau-262667.EOu"
         message file     "/home/jh-li/scratch/g16/Gau-262667.EMs"
         fchk file        "/home/jh-li/scratch/g16/Gau-262667.EFC"
         mat. el file     "/home/jh-li/scratch/g16/Gau-262667.EUF"
 Read checkpoint file mol_rohf.chk
 Write formatted file mol_rohf.fchk
!LICENCE! Warning: licence will expire on 2025/04/10
 Recovered energy= -93.0855132800     dipole=      0.000000000000      0.000000000000      0.000000000000
 Energy=    -93.0855133     NIter=   0.
 Dipole moment=       0.000000       0.000000       0.000000
 Leave Link  402 at Sat Mar 15 18:14:01 2025, MaxMem=   104857600 cpu:               0.0 elap:               8.0
 (Enter /opt/g16/l601.exe)
 Leave Link  601 at Sat Mar 15 18:14:01 2025, MaxMem=   104857600 cpu:               0.0 elap:               0.0
 (Enter /opt/g16/l716.exe)
 Dipole        = 0.00000000D+00 0.00000000D+00 0.00000000D+00
 -------------------------------------------------------------------
 Center     Atomic                   Forces (Hartrees/Bohr)
 Number     Number              X              Y              Z
 -------------------------------------------------------------------
      1        6          -0.113763070    0.075029200   -0.000000000
      2        7           0.075609810   -0.121720450   -0.000000000
      3        1           0.038153250    0.046691250   -0.000000000
 -------------------------------------------------------------------
 Cartesian Forces:  Max     0.121720450 RMS     0.068912079
 Leave Link  716 at Sat Mar 15 18:14:01 2025, MaxMem=   104857600 cpu:               0.0 elap:               0.0
 (Enter /opt/g16/l106.exe)
 NDeriv=      9 NFrqRd=  0 NDerD0=      0 MskFDP=       0 MskDFD=       0 MskDF0=       0
 Re-enter D2Numr:  atom   3 IXYZ=1 step-up   number 1
 Leave Link  106 at Sat Mar 15 18:14:01 2025, MaxMem=   104857600 cpu:               0.1 elap:               0.1
 (Enter /opt/g16/l301.exe)
 Standard basis: STO-3G (5D, 7F)
 Ernie: Thresh=  0.10000D-02 Tol=  0.10000D-05 Strict=F.
    11 basis functions,    33 primitive gaussians,    11 cartesian basis functions
     7 alpha electrons        7 beta electrons
       nuclear repulsion energy        21.4292164784 Hartrees.
 IExCor=    0 DFT=F Ex=HF Corr=None ExCW=0 ScaHFX=  1.000000
 ScaDFX=  1.000000  1.000000  1.000000  1.000000 ScalE2=  1.000000  1.000000
 IRadAn=      5 IRanWt=     -1 IRanGd=            0 ICorTp=0 IEmpDi=  4
 NAtoms=    3 NActive=    3 NUniq=    3 SFac= 1.00D+00 NAtFMM=   60 NAOKFM=F Big=F
 Integral buffers will be    131072 words long.
 Raffenetti 1 integral format.
 Two-electron integral symmetry is turned off.
 Leave Link  301 at Sat Mar 15 18:14:01 2025, MaxMem=   104857600 cpu:               0.0 elap:               0.0
 (Enter /opt/g16/l402.exe)
 External calculation of energy and first derivatives.
 Running external command "python3 -u ../../../src/gmm.py R"
         input file       "/home/jh-li/scratch/g16/Gau-262667.EIn"
         output file      "/home/jh-li/scratch/g16/Gau-262667.EOu"
         message file     "/home/jh-li/scratch/g16/Gau-262667.EMs"
         fchk file        "/home/jh-li/scratch/g16/Gau-262667.EFC"
         mat. el file     "/home/jh-li/scratch/g16/Gau-262667.EUF"
 Read checkpoint file mol_rohf.chk
 Write formatted file mol_rohf.fchk
!LICENCE! Warning: licence will expire on 2025/04/10
 Recovered energy= -93.0853687900     dipole=      0.000000000000      0.000000000000      0.000000000000
 Energy=    -93.0853688     NIter=   0.
 Dipole moment=       0.000000       0.000000       0.000000
 Leave Link  402 at Sat Mar 15 18:14:08 2025, MaxMem=   104857600 cpu:               0.0 elap:               6.7
 (Enter /opt/g16/l601.exe)
 Leave Link  601 at Sat Mar 15 18:14:08 2025, MaxMem=   104857600 cpu:               0.0 elap:               0.0
 (Enter /opt/g16/l716.exe)
 Dipole        = 0.00000000D+00 0.00000000D+00 0.00000000D+00
 -------------------------------------------------------------------
 Center     Atomic                   Forces (Hartrees/Bohr)
 Number     Number              X              Y              Z
 -------------------------------------------------------------------
      1        6          -0.113751370    0.074951140   -0.000000000
      2        7           0.075441020   -0.121813730   -0.000000000
      3        1           0.038310350    0.046862590   -0.000000000
 -------------------------------------------------------------------
 Cartesian Forces:  Max     0.121813730 RMS     0.068920861
 Leave Link  716 at Sat Mar 15 18:14:08 2025, MaxMem=   104857600 cpu:               0.0 elap:               0.0
 (Enter /opt/g16/l106.exe)
 NDeriv=      9 NFrqRd=  0 NDerD0=      0 MskFDP=       0 MskDFD=       0 MskDF0=       0
 Re-enter D2Numr:  atom   3 IXYZ=1 step-down number 1
 Leave Link  106 at Sat Mar 15 18:14:08 2025, MaxMem=   104857600 cpu:               0.1 elap:               0.1
 (Enter /opt/g16/l301.exe)
 Standard basis: STO-3G (5D, 7F)
 Ernie: Thresh=  0.10000D-02 Tol=  0.10000D-05 Strict=F.
    11 basis functions,    33 primitive gaussians,    11 cartesian basis functions
     7 alpha electrons        7 beta electrons
       nuclear repulsion energy        21.4331683539 Hartrees.
 IExCor=    0 DFT=F Ex=HF Corr=None ExCW=0 ScaHFX=  1.000000
 ScaDFX=  1.000000  1.000000  1.000000  1.000000 ScalE2=  1.000000  1.000000
 IRadAn=      5 IRanWt=     -1 IRanGd=            0 ICorTp=0 IEmpDi=  4
 NAtoms=    3 NActive=    3 NUniq=    3 SFac= 1.00D+00 NAtFMM=   60 NAOKFM=F Big=F
 Integral buffers will be    131072 words long.
 Raffenetti 1 integral format.
 Two-electron integral symmetry is turned off.
 Leave Link  301 at Sat Mar 15 18:14:08 2025, MaxMem=   104857600 cpu:               0.0 elap:               0.1
 (Enter /opt/g16/l402.exe)
 External calculation of energy and first derivatives.
 Running external command "python3 -u ../../../src/gmm.py R"
         input file       "/home/jh-li/scratch/g16/Gau-262667.EIn"
         output file      "/home/jh-li/scratch/g16/Gau-262667.EOu"
         message file     "/home/jh-li/scratch/g16/Gau-262667.EMs"
         fchk file        "/home/jh-li/scratch/g16/Gau-262667.EFC"
         mat. el file     "/home/jh-li/scratch/g16/Gau-262667.EUF"
 Read checkpoint file mol_rohf.chk
 Write formatted file mol_rohf.fchk
!LICENCE! Warning: licence will expire on 2025/04/10
 Recovered energy= -93.0855294900     dipole=      0.000000000000      0.000000000000      0.000000000000
 Energy=    -93.0855295     NIter=   0.
 Dipole moment=       0.000000       0.000000       0.000000
 Leave Link  402 at Sat Mar 15 18:14:17 2025, MaxMem=   104857600 cpu:               0.0 elap:               8.9
 (Enter /opt/g16/l601.exe)
 Leave Link  601 at Sat Mar 15 18:14:17 2025, MaxMem=   104857600 cpu:               0.0 elap:               0.0
 (Enter /opt/g16/l716.exe)
 Dipole        = 0.00000000D+00 0.00000000D+00 0.00000000D+00
 -------------------------------------------------------------------
 Center     Atomic                   Forces (Hartrees/Bohr)
 Number     Number              X              Y              Z
 -------------------------------------------------------------------
      1        6          -0.113650240    0.075047180   -0.000000000
      2        7           0.075504070   -0.121802840   -0.000000000
      3        1           0.038146170    0.046755650   -0.000000000
 -------------------------------------------------------------------
 Cartesian Forces:  Max     0.121802840 RMS     0.068901277
 Leave Link  716 at Sat Mar 15 18:14:17 2025, MaxMem=   104857600 cpu:               0.0 elap:               0.0
 (Enter /opt/g16/l106.exe)
 NDeriv=      9 NFrqRd=  0 NDerD0=      0 MskFDP=       0 MskDFD=       0 MskDF0=       0
 Re-enter D2Numr:  atom   3 IXYZ=2 step-up   number 1
 Leave Link  106 at Sat Mar 15 18:14:17 2025, MaxMem=   104857600 cpu:               0.1 elap:               0.1
 (Enter /opt/g16/l301.exe)
 Standard basis: STO-3G (5D, 7F)
 Ernie: Thresh=  0.10000D-02 Tol=  0.10000D-05 Strict=F.
    11 basis functions,    33 primitive gaussians,    11 cartesian basis functions
     7 alpha electrons        7 beta electrons
       nuclear repulsion energy        21.4289780294 Hartrees.
 IExCor=    0 DFT=F Ex=HF Corr=None ExCW=0 ScaHFX=  1.000000
 ScaDFX=  1.000000  1.000000  1.000000  1.000000 ScalE2=  1.000000  1.000000
 IRadAn=      5 IRanWt=     -1 IRanGd=            0 ICorTp=0 IEmpDi=  4
 NAtoms=    3 NActive=    3 NUniq=    3 SFac= 1.00D+00 NAtFMM=   60 NAOKFM=F Big=F
 Integral buffers will be    131072 words long.
 Raffenetti 1 integral format.
 Two-electron integral symmetry is turned off.
 Leave Link  301 at Sat Mar 15 18:14:17 2025, MaxMem=   104857600 cpu:               0.0 elap:               0.0
 (Enter /opt/g16/l402.exe)
 External calculation of energy and first derivatives.
 Running external command "python3 -u ../../../src/gmm.py R"
         input file       "/home/jh-li/scratch/g16/Gau-262667.EIn"
         output file      "/home/jh-li/scratch/g16/Gau-262667.EOu"
         message file     "/home/jh-li/scratch/g16/Gau-262667.EMs"
         fchk file        "/home/jh-li/scratch/g16/Gau-262667.EFC"
         mat. el file     "/home/jh-li/scratch/g16/Gau-262667.EUF"
 Read checkpoint file mol_rohf.chk
 Write formatted file mol_rohf.fchk
!LICENCE! Warning: licence will expire on 2025/04/10
 Recovered energy= -93.0853526900     dipole=      0.000000000000      0.000000000000      0.000000000000
 Energy=    -93.0853527     NIter=   0.
 Dipole moment=       0.000000       0.000000       0.000000
 Leave Link  402 at Sat Mar 15 18:14:26 2025, MaxMem=   104857600 cpu:               0.0 elap:               8.1
 (Enter /opt/g16/l601.exe)
 Leave Link  601 at Sat Mar 15 18:14:26 2025, MaxMem=   104857600 cpu:               0.0 elap:               0.0
 (Enter /opt/g16/l716.exe)
 Dipole        = 0.00000000D+00 0.00000000D+00 0.00000000D+00
 -------------------------------------------------------------------
 Center     Atomic                   Forces (Hartrees/Bohr)
 Number     Number              X              Y              Z
 -------------------------------------------------------------------
      1        6          -0.113864320    0.074932940   -0.000000000
      2        7           0.075546820   -0.121731400   -0.000000000
      3        1           0.038317510    0.046798460   -0.000000000
 -------------------------------------------------------------------
 Cartesian Forces:  Max     0.121731400 RMS     0.068931699
 Leave Link  716 at Sat Mar 15 18:14:26 2025, MaxMem=   104857600 cpu:               0.0 elap:               0.0
 (Enter /opt/g16/l106.exe)
 NDeriv=      9 NFrqRd=  0 NDerD0=      0 MskFDP=       0 MskDFD=       0 MskDF0=       0
 Re-enter D2Numr:  atom   3 IXYZ=2 step-down number 1
 Leave Link  106 at Sat Mar 15 18:14:26 2025, MaxMem=   104857600 cpu:               0.1 elap:               0.1
 (Enter /opt/g16/l301.exe)
 Standard basis: STO-3G (5D, 7F)
 Ernie: Thresh=  0.10000D-02 Tol=  0.10000D-05 Strict=F.
    11 basis functions,    33 primitive gaussians,    11 cartesian basis functions
     7 alpha electrons        7 beta electrons
       nuclear repulsion energy        21.4310715064 Hartrees.
 IExCor=    0 DFT=F Ex=HF Corr=None ExCW=0 ScaHFX=  1.000000
 ScaDFX=  1.000000  1.000000  1.000000  1.000000 ScalE2=  1.000000  1.000000
 IRadAn=      5 IRanWt=     -1 IRanGd=            0 ICorTp=0 IEmpDi=  4
 NAtoms=    3 NActive=    3 NUniq=    3 SFac= 1.00D+00 NAtFMM=   60 NAOKFM=F Big=F
 Integral buffers will be    131072 words long.
 Raffenetti 1 integral format.
 Two-electron integral symmetry is turned off.
 Leave Link  301 at Sat Mar 15 18:14:26 2025, MaxMem=   104857600 cpu:               0.0 elap:               0.0
 (Enter /opt/g16/l402.exe)
 External calculation of energy and first derivatives.
 Running external command "python3 -u ../../../src/gmm.py R"
         input file       "/home/jh-li/scratch/g16/Gau-262667.EIn"
         output file      "/home/jh-li/scratch/g16/Gau-262667.EOu"
         message file     "/home/jh-li/scratch/g16/Gau-262667.EMs"
         fchk file        "/home/jh-li/scratch/g16/Gau-262667.EFC"
         mat. el file     "/home/jh-li/scratch/g16/Gau-262667.EUF"
 Read checkpoint file mol_rohf.chk
 Write formatted file mol_rohf.fchk
!LICENCE! Warning: licence will expire on 2025/04/10
 Recovered energy= -93.0854410700     dipole=      0.000000000000      0.000000000000      0.000000000000
 Energy=    -93.0854411     NIter=   0.
 Dipole moment=       0.000000       0.000000       0.000000
 Leave Link  402 at Sat Mar 15 18:14:34 2025, MaxMem=   104857600 cpu:               0.0 elap:               7.9
 (Enter /opt/g16/l601.exe)
 Leave Link  601 at Sat Mar 15 18:14:34 2025, MaxMem=   104857600 cpu:               0.0 elap:               0.0
 (Enter /opt/g16/l716.exe)
 Dipole        = 0.00000000D+00 0.00000000D+00 0.00000000D+00
 -------------------------------------------------------------------
 Center     Atomic                   Forces (Hartrees/Bohr)
 Number     Number              X              Y              Z
 -------------------------------------------------------------------
      1        6          -0.113757370    0.074990050    0.000020424
      2        7           0.075525390   -0.121767180    0.000024969
      3        1           0.038231980    0.046777130   -0.000045393
 -------------------------------------------------------------------
 Cartesian Forces:  Max     0.121767180 RMS     0.068916507
 Leave Link  716 at Sat Mar 15 18:14:34 2025, MaxMem=   104857600 cpu:               0.0 elap:               0.0
 (Enter /opt/g16/l106.exe)
 NDeriv=      9 NFrqRd=  0 NDerD0=      0 MskFDP=       0 MskDFD=       0 MskDF0=       0
 Re-enter D2Numr:  atom   3 IXYZ=3 step-up   number 1
 Leave Link  106 at Sat Mar 15 18:14:34 2025, MaxMem=   104857600 cpu:               0.1 elap:               0.1
 (Enter /opt/g16/l301.exe)
 Standard basis: STO-3G (5D, 7F)
 Ernie: Thresh=  0.10000D-02 Tol=  0.10000D-05 Strict=F.
    11 basis functions,    33 primitive gaussians,    11 cartesian basis functions
     7 alpha electrons        7 beta electrons
       nuclear repulsion energy        21.4310715064 Hartrees.
 IExCor=    0 DFT=F Ex=HF Corr=None ExCW=0 ScaHFX=  1.000000
 ScaDFX=  1.000000  1.000000  1.000000  1.000000 ScalE2=  1.000000  1.000000
 IRadAn=      5 IRanWt=     -1 IRanGd=            0 ICorTp=0 IEmpDi=  4
 NAtoms=    3 NActive=    3 NUniq=    3 SFac= 1.00D+00 NAtFMM=   60 NAOKFM=F Big=F
 Integral buffers will be    131072 words long.
 Raffenetti 1 integral format.
 Two-electron integral symmetry is turned off.
 Leave Link  301 at Sat Mar 15 18:14:34 2025, MaxMem=   104857600 cpu:               0.0 elap:               0.0
 (Enter /opt/g16/l402.exe)
 External calculation of energy and first derivatives.
 Running external command "python3 -u ../../../src/gmm.py R"
         input file       "/home/jh-li/scratch/g16/Gau-262667.EIn"
         output file      "/home/jh-li/scratch/g16/Gau-262667.EOu"
         message file     "/home/jh-li/scratch/g16/Gau-262667.EMs"
         fchk file        "/home/jh-li/scratch/g16/Gau-262667.EFC"
         mat. el file     "/home/jh-li/scratch/g16/Gau-262667.EUF"
 Read checkpoint file mol_rohf.chk
 Write formatted file mol_rohf.fchk
!LICENCE! Warning: licence will expire on 2025/04/10
 Recovered energy= -93.0854410700     dipole=      0.000000000000      0.000000000000      0.000000000000
 Energy=    -93.0854411     NIter=   0.
 Dipole moment=       0.000000       0.000000       0.000000
 Leave Link  402 at Sat Mar 15 18:14:41 2025, MaxMem=   104857600 cpu:               0.0 elap:               7.3
 (Enter /opt/g16/l601.exe)
 Leave Link  601 at Sat Mar 15 18:14:41 2025, MaxMem=   104857600 cpu:               0.0 elap:               0.0
 (Enter /opt/g16/l716.exe)
 Dipole        = 0.00000000D+00 0.00000000D+00 0.00000000D+00
 -------------------------------------------------------------------
 Center     Atomic                   Forces (Hartrees/Bohr)
 Number     Number              X              Y              Z
 -------------------------------------------------------------------
      1        6          -0.113757370    0.074990050   -0.000020424
      2        7           0.075525390   -0.121767180   -0.000024969
      3        1           0.038231980    0.046777130    0.000045393
 -------------------------------------------------------------------
 Cartesian Forces:  Max     0.121767180 RMS     0.068916507
 Leave Link  716 at Sat Mar 15 18:14:41 2025, MaxMem=   104857600 cpu:               0.0 elap:               0.0
 (Enter /opt/g16/l106.exe)
 NDeriv=      9 NFrqRd=  0 NDerD0=      0 MskFDP=       0 MskDFD=       0 MskDF0=       0
 Re-enter D2Numr:  atom   3 IXYZ=3 step-down number 1
 Finish atom      3 at Sat Mar 15 18:14:41 2025
 Maximum difference in off-diagonal FC elements:
 I=  8 J=  5 Difference=    2.6458860532D-06
 Max difference between analytic and numerical forces:
 I=  8 Difference=    2.1554467907D-06
 FinFTb:  IFil= 1 IFilD=  777 LTop=  1 LFil=         4 LTop1=  0 IMask=  1
 Leave Link  106 at Sat Mar 15 18:14:41 2025, MaxMem=   104857600 cpu:               0.1 elap:               0.1
 (Enter /opt/g16/l716.exe)
 Dipole        = 0.00000000D+00 0.00000000D+00 0.00000000D+00
 Full mass-weighted force constant matrix:
 Low frequencies --- -915.9662   -1.7887   -0.0144    2.8942  471.8620  544.4943
 Low frequencies ---  808.8586 1311.0732 1433.7750
 ******    1 imaginary frequencies (negative Signs) ****** 
 Diagonal vibrational polarizability:
        0.0000000       0.0000000       0.0000000
 Harmonic frequencies (cm**-1), IR intensities (KM/Mole), Raman scattering
 activities (A**4/AMU), depolarization ratios for plane and unpolarized
 incident light, reduced masses (AMU), force constants (mDyne/A),
 and normal coordinates:
                      1                      2                      3
                      A                      A                      A
 Frequencies --   -906.2437              1311.0732              1433.4716
 Red. masses --      1.1829                 6.7928                 1.1291
 Frc consts  --      0.5724                 6.8794                 1.3670
 IR Inten    --      0.0000                 0.0000                 0.0000
  Atom  AN      X      Y      Z        X      Y      Z        X      Y      Z
     1   6     0.09   0.01  -0.00     0.39  -0.35   0.00    -0.00  -0.08  -0.00
     2   7    -0.04  -0.07  -0.00    -0.30   0.34   0.00    -0.06   0.03  -0.00
     3   1    -0.57   0.81  -0.00    -0.46  -0.55   0.00     0.80   0.59  -0.00

 -------------------
 - Thermochemistry -
 -------------------
 Temperature   298.150 Kelvin.  Pressure   1.00000 Atm.
 Atom     1 has atomic number  6 and mass  12.00000
 Atom     2 has atomic number  7 and mass  14.00307
 Atom     3 has atomic number  1 and mass   1.00783
 Molecular mass:    27.01090 amu.
 Principal axes and moments of inertia in atomic units:
                           1         2         3
     Eigenvalues --     6.07073  40.47332  46.54405
           X           -0.69818   0.71593   0.00000
           Y            0.71593   0.69818   0.00000
           Z           -0.00000   0.00000   1.00000
 This molecule is an asymmetric top.
 Rotational symmetry number  1.
 Rotational temperatures (Kelvin)     14.26746     2.14003     1.86090
 Rotational constants (GHZ):         297.28566    44.59089    38.77491
    1 imaginary frequencies ignored.
 Zero-point vibrational energy      16416.0 (Joules/Mol)
                                    3.92352 (Kcal/Mol)
 Vibrational temperatures:   1886.34  2062.45
          (Kelvin)
 
 Zero-point correction=                           0.006253 (Hartree/Particle)
 Thermal correction to Energy=                    0.009102
 Thermal correction to Enthalpy=                  0.010046
 Thermal correction to Gibbs Free Energy=        -0.015110
 Sum of electronic and zero-point Energies=            -93.079189
 Sum of electronic and thermal Energies=               -93.076339
 Sum of electronic and thermal Enthalpies=             -93.075395
 Sum of electronic and thermal Free Energies=          -93.100551
 
                     E (Thermal)             CV                S
                      KCal/Mol        Cal/Mol-Kelvin    Cal/Mol-Kelvin
 Total                    5.712              6.199             52.946
 Electronic               0.000              0.000              0.000
 Translational            0.889              2.981             35.816
 Rotational               0.889              2.981             17.088
 Vibrational              3.934              0.237              0.042
                       Q            Log10(Q)             Ln(Q)
 Total Bot       0.891229D+07          6.949989         16.002942
 Total V=0       0.669811D+10          9.825952         22.625092
 Vib (Bot)       0.133427D-02         -2.874756         -6.619369
 Vib (V=0)       0.100278D+01          0.001207          0.002780
 Electronic      0.100000D+01          0.000000          0.000000
 Translational   0.551776D+07          6.741762         15.523482
 Rotational      0.121055D+04          3.082983          7.098830
 
                                                         Title Card Required
                                                             IR Spectrum
 
     1          1                                                                                                                    
     4          3                                                                                                                    
     3          1                                                                                                                    
     3          1                                                                                                                    
 
                                                                                                                                     
                                                                                                                                     
                                                                                                                                     
                                                                                                                                     
                                                                                                                                     
                                                                                                                                     
                                                                                                                                     
                                                                                                                                     
                                                                                                                                     
                                                                                                                                     
                                                                                                                                     
                                                                                                                                     
                                                                                                                                     
                                                                                                                                     
                                                                                                                                     
                                                                                                                                     
                                                                                                                                     
                                                                                                                                     
                                                                                                                                     
                                                                                                                                     
 
 -------------------------------------------------------------------
 Center     Atomic                   Forces (Hartrees/Bohr)
 Number     Number              X              Y              Z
 -------------------------------------------------------------------
      1        6          -0.113757350    0.074990070   -0.000000000
      2        7           0.075525400   -0.121767190   -0.000000000
      3        1           0.038231950    0.046777110   -0.000000000
 -------------------------------------------------------------------
 Cartesian Forces:  Max     0.121767190 RMS     0.068916503
 Z-matrix is all fixed cartesians, so copy forces.
 Force constants in Cartesian coordinates: 
                1             2             3             4             5 
      1  0.191742D+00
      2 -0.178563D+00  0.260151D+00
      3  0.000000D+00  0.000000D+00  0.593149D-01
      4 -0.194838D+00  0.199219D+00  0.000000D+00  0.239500D+00
      5  0.235209D+00 -0.229926D+00  0.000000D+00 -0.210528D+00  0.211025D+00
      6  0.000000D+00  0.000000D+00 -0.485070D-01  0.000000D+00  0.000000D+00
      7  0.309569D-02 -0.206538D-01  0.000000D+00 -0.446599D-01 -0.246808D-01
      8 -0.566431D-01 -0.302266D-01  0.000000D+00  0.113112D-01  0.189009D-01
      9  0.000000D+00  0.000000D+00 -0.108079D-01  0.000000D+00  0.000000D+00
                6             7             8             9 
      6  0.617203D-01
      7  0.000000D+00  0.415669D-01
      8  0.000000D+00  0.453346D-01  0.113270D-01
      9 -0.132133D-01  0.000000D+00  0.000000D+00  0.240212D-01
 Leave Link  716 at Sat Mar 15 18:14:41 2025, MaxMem=   104857600 cpu:               0.0 elap:               0.0
 (Enter /opt/g16/l103.exe)

 GradGradGradGradGradGradGradGradGradGradGradGradGradGradGradGradGradGrad
 Berny optimization.
 Search for a local minimum.
 Step number   1 out of a maximum of    2
 All quantities printed in internal units (Hartrees-Bohrs-Radians)
 Second derivative matrix not updated -- analytic derivatives used.
 The second derivative matrix:
                          X1        Y1        Z1        X2        Y2
           X1           0.19174
           Y1          -0.17856   0.26015
           Z1           0.00000   0.00000   0.05931
           X2          -0.19484   0.19922   0.00000   0.23950
           Y2           0.23521  -0.22993   0.00000  -0.21053   0.21103
           Z2           0.00000   0.00000  -0.04851   0.00000   0.00000
           X3           0.00310  -0.02065   0.00000  -0.04466  -0.02468
           Y3          -0.05664  -0.03023   0.00000   0.01131   0.01890
           Z3           0.00000   0.00000  -0.01081   0.00000   0.00000
                          Z2        X3        Y3        Z3
           Z2           0.06172
           X3           0.00000   0.04157
           Y3           0.00000   0.04533   0.01133
           Z3          -0.01321   0.00000   0.00000   0.02402
 ITU=  0
     Eigenvalues ---   -0.07712   0.10132   0.84955
 Eigenvalue     1 is  -7.71D-02 should be greater than     0.000000 Eigenvector:
                          Y3        X3        X1        Y2        X2
   1                    0.71187  -0.47394   0.35090  -0.34327  -0.14573
                          Y1        Z1        Z3        Z2
   1                    0.08016  -0.00000  -0.00000  -0.00000
 Quadratic step=7.546D-01 exceeds max=3.000D-01 adjusted using Lamda=-2.022D-01.
 Angle between NR and scaled steps=  20.08 degrees.
 Angle between quadratic step and forces=  32.74 degrees.
 Linear search not attempted -- first point.
 B after Tr=    -0.027906   -0.036930   -0.000000
         Rot=    1.000000    0.000000   -0.000000    0.000140 Ang=   0.02 deg.
 Variable       Old X    -DE/DX   Delta X   Delta X   Delta X     New X
                                 (Linear)    (Quad)   (Total)
    X1        1.06419  -0.11376   0.00000  -0.12686  -0.15506   0.90913
    Y1       -1.08915   0.07499   0.00000   0.06214   0.02494  -1.06421
    Z1        0.00000  -0.00000   0.00000   0.00000  -0.00000  -0.00000
    X2       -0.70903   0.07553   0.00000   0.06046   0.03271  -0.67632
    Y2        0.67453  -0.12177   0.00000  -0.12186  -0.15861   0.51592
    Z2        0.00000  -0.00000   0.00000   0.00000   0.00000   0.00000
    X3       -1.50279   0.03823   0.00000   0.15079   0.12235  -1.38044
    Y3       -2.06633   0.04678   0.00000   0.17022   0.13367  -1.93266
    Z3        0.00000  -0.00000   0.00000   0.00000   0.00000   0.00000
         Item               Value     Threshold  Converged?
 Maximum Force            0.121767     0.000450     NO 
 RMS     Force            0.068917     0.000300     NO 
 Maximum Displacement     0.158610     0.001800     NO 
 RMS     Displacement     0.096453     0.001200     NO 
 Predicted change in Energy=-3.537306D-02
 GradGradGradGradGradGradGradGradGradGradGradGradGradGradGradGradGradGrad

 Leave Link  103 at Sat Mar 15 18:14:41 2025, MaxMem=   104857600 cpu:               0.0 elap:               0.1
 (Enter /opt/g16/l9999.exe)
 1\1\GINC-DESKTOP-1D9QDE1\Freq\RExternal='python3 -u ../../../src/gmm.p
 y'\ZDO\C1H1N1\JH-LI\15-Mar-2025\0\\#p external="python3 -u ../../../sr
 c/gmm.py" freq=num nosymm\\Title Card Required\\0,1\C,0.56314246,-0.57
 635434,0.\N,-0.37519999,0.35694724,0.\H,-0.79524238,-1.09345422,0.\\Ve
 rsion=ES64L-G16RevA.03\HF=-93.0854411\RMSD=0.000e+00\RMSF=6.892e-02\Ze
 roPoint=0.0062525\Thermal=0.0091023\Dipole=0.,0.,0.\DipoleDeriv=0.,0.,
 0.,0.,0.,0.,0.,0.,0.,0.,0.,0.,0.,0.,0.,0.,0.,0.,0.,0.,0.,0.,0.,0.,0.,0
 .,0.\PG=CS [SG(C1H1N1)]\NImag=1\\0.19174207,-0.17856291,0.26015145,0.,
 0.,0.05931493,-0.19483776,0.19921934,0.,0.23950031,0.23520869,-0.22992
 618,0.,-0.21052786,0.21102529,0.,0.,-0.04850703,0.,0.,0.06172029,0.003
 09569,-0.02065379,0.,-0.04465991,-0.02468083,0.,0.04156687,-0.05664313
 ,-0.03022660,0.,0.01131116,0.01890089,0.,0.04533461,0.01132704,0.,0.,-
 0.01080791,0.,0.,-0.01321326,0.,0.,0.02402118\\0.11375735,-0.07499007,
 0.,-0.07552540,0.12176719,0.,-0.03823195,-0.04677711,0.\\\@


 I FIND THAT THE THREE TRULY GREAT TIMES FOR THINKING THOUGHTS
 ARE WHEN I AM STANDING IN THE SHOWER, SITTING ON THE JOHN, OR WALKING.

                                    -- COLIN FLETCHER
 Job cpu time:       0 days  0 hours  0 minutes  3.9 seconds.
 Elapsed time:       0 days  0 hours  2 minutes 32.3 seconds.
 File lengths (MBytes):  RWF=     43 Int=      0 D2E=      0 Chk=     38 Scr=      1
 Normal termination of Gaussian 16 at Sat Mar 15 18:14:41 2025.
 Initial command:
 /opt/g16/l1.exe "/home/jh-li/scratch/g16/Gau-262641.inp" -scrdir="/home/jh-li/scratch/g16/"
 Entering Link 1 = /opt/g16/l1.exe PID=    267621.
  
 Copyright (c) 1988,1990,1992,1993,1995,1998,2003,2009,2016,
            Gaussian, Inc.  All Rights Reserved.
  
 This is part of the Gaussian(R) 16 program.  It is based on
 the Gaussian(R) 09 system (copyright 2009, Gaussian, Inc.),
 the Gaussian(R) 03 system (copyright 2003, Gaussian, Inc.),
 the Gaussian(R) 98 system (copyright 1998, Gaussian, Inc.),
 the Gaussian(R) 94 system (copyright 1995, Gaussian, Inc.),
 the Gaussian 92(TM) system (copyright 1992, Gaussian, Inc.),
 the Gaussian 90(TM) system (copyright 1990, Gaussian, Inc.),
 the Gaussian 88(TM) system (copyright 1988, Gaussian, Inc.),
 the Gaussian 86(TM) system (copyright 1986, Carnegie Mellon
 University), and the Gaussian 82(TM) system (copyright 1983,
 Carnegie Mellon University). Gaussian is a federally registered
 trademark of Gaussian, Inc.
  
 This software contains proprietary and confidential information,
 including trade secrets, belonging to Gaussian, Inc.
  
 This software is provided under written license and may be
[...]
 (Enter /opt/g16/l301.exe)
 Standard basis: STO-3G (5D, 7F)
 Ernie: Thresh=  0.10000D-02 Tol=  0.10000D-05 Strict=F.
    11 basis functions,    33 primitive gaussians,    11 cartesian basis functions
     7 alpha electrons        7 beta electrons
       nuclear repulsion energy        23.6466710998 Hartrees.
 IExCor=    0 DFT=F Ex=HF Corr=None ExCW=0 ScaHFX=  1.000000
 ScaDFX=  1.000000  1.000000  1.000000  1.000000 ScalE2=  1.000000  1.000000
 IRadAn=      5 IRanWt=     -1 IRanGd=            0 ICorTp=0 IEmpDi=  4
 NAtoms=    3 NActive=    3 NUniq=    3 SFac= 1.00D+00 NAtFMM=   60 NAOKFM=F Big=F
 Integral buffers will be    131072 words long.
 Raffenetti 1 integral format.
 Two-electron integral symmetry is turned off.
 Leave Link  301 at Sat Mar 15 18:17:54 2025, MaxMem=   104857600 cpu:               0.0 elap:               0.0
 (Enter /opt/g16/l402.exe)
 External calculation of energy and first derivatives.
 Running external command "python3 -u ../../../src/gmm.py R"
         input file       "/home/jh-li/scratch/g16/Gau-269452.EIn"
         output file      "/home/jh-li/scratch/g16/Gau-269452.EOu"
         message file     "/home/jh-li/scratch/g16/Gau-269452.EMs"
         fchk file        "/home/jh-li/scratch/g16/Gau-269452.EFC"
         mat. el file     "/home/jh-li/scratch/g16/Gau-269452.EUF"
 Read checkpoint file mol_rohf.chk
 Write formatted file mol_rohf.fchk
!LICENCE! Warning: licence will expire on 2025/04/10
 Recovered energy= -93.1140195900     dipole=      0.000000000000      0.000000000000      0.000000000000
 Energy=    -93.1140196     NIter=   0.
 Dipole moment=       0.000000       0.000000       0.000000
 Leave Link  402 at Sat Mar 15 18:18:02 2025, MaxMem=   104857600 cpu:               0.0 elap:               8.1
 (Enter /opt/g16/l601.exe)
 Leave Link  601 at Sat Mar 15 18:18:02 2025, MaxMem=   104857600 cpu:               0.0 elap:               0.0
 (Enter /opt/g16/l716.exe)
 Dipole        = 0.00000000D+00 0.00000000D+00 0.00000000D+00
 -------------------------------------------------------------------
 Center     Atomic                   Forces (Hartrees/Bohr)
 Number     Number              X              Y              Z
 -------------------------------------------------------------------
      1        6          -0.000070371   -0.000034304    0.000000067
      2        7          -0.000006954   -0.000011887    0.000000011
      3        1           0.000077325    0.000046191   -0.000000078
 -------------------------------------------------------------------
 Cartesian Forces:  Max     0.000077325 RMS     0.000040043
 Leave Link  716 at Sat Mar 15 18:18:02 2025, MaxMem=   104857600 cpu:               0.0 elap:               0.0
 (Enter /opt/g16/l106.exe)
 NDeriv=      9 NFrqRd=  0 NDerD0=      0 MskFDP=       0 MskDFD=       0 MskDF0=       0
 Re-enter D2Numr:  atom   3 IXYZ=3 step-up   number 1
 Leave Link  106 at Sat Mar 15 18:18:02 2025, MaxMem=   104857600 cpu:               0.1 elap:               0.1
 (Enter /opt/g16/l301.exe)
 Standard basis: STO-3G (5D, 7F)
 Ernie: Thresh=  0.10000D-02 Tol=  0.10000D-05 Strict=F.
    11 basis functions,    33 primitive gaussians,    11 cartesian basis functions
     7 alpha electrons        7 beta electrons
       nuclear repulsion energy        23.6466710998 Hartrees.
 IExCor=    0 DFT=F Ex=HF Corr=None ExCW=0 ScaHFX=  1.000000
 ScaDFX=  1.000000  1.000000  1.000000  1.000000 ScalE2=  1.000000  1.000000
 IRadAn=      5 IRanWt=     -1 IRanGd=            0 ICorTp=0 IEmpDi=  4
 NAtoms=    3 NActive=    3 NUniq=    3 SFac= 1.00D+00 NAtFMM=   60 NAOKFM=F Big=F
 Integral buffers will be    131072 words long.
 Raffenetti 1 integral format.
 Two-electron integral symmetry is turned off.
 Leave Link  301 at Sat Mar 15 18:18:02 2025, MaxMem=   104857600 cpu:               0.0 elap:               0.0
 (Enter /opt/g16/l402.exe)
 External calculation of energy and first derivatives.
 Running external command "python3 -u ../../../src/gmm.py R"
         input file       "/home/jh-li/scratch/g16/Gau-269452.EIn"
         output file      "/home/jh-li/scratch/g16/Gau-269452.EOu"
         message file     "/home/jh-li/scratch/g16/Gau-269452.EMs"
         fchk file        "/home/jh-li/scratch/g16/Gau-269452.EFC"
         mat. el file     "/home/jh-li/scratch/g16/Gau-269452.EUF"
 Read checkpoint file mol_rohf.chk
 Write formatted file mol_rohf.fchk
!LICENCE! Warning: licence will expire on 2025/04/10
 Recovered energy= -93.1140195900     dipole=      0.000000000000      0.000000000000      0.000000000000
 Energy=    -93.1140196     NIter=   0.
 Dipole moment=       0.000000       0.000000       0.000000
 Leave Link  402 at Sat Mar 15 18:18:10 2025, MaxMem=   104857600 cpu:               0.0 elap:               8.1
 (Enter /opt/g16/l601.exe)
 Leave Link  601 at Sat Mar 15 18:18:10 2025, MaxMem=   104857600 cpu:               0.0 elap:               0.1
 (Enter /opt/g16/l716.exe)
 Dipole        = 0.00000000D+00 0.00000000D+00 0.00000000D+00
 -------------------------------------------------------------------
 Center     Atomic                   Forces (Hartrees/Bohr)
 Number     Number              X              Y              Z
 -------------------------------------------------------------------
      1        6          -0.000070371   -0.000034304   -0.000000067
      2        7          -0.000006954   -0.000011887   -0.000000011
      3        1           0.000077325    0.000046191    0.000000078
 -------------------------------------------------------------------
 Cartesian Forces:  Max     0.000077325 RMS     0.000040043
 Leave Link  716 at Sat Mar 15 18:18:10 2025, MaxMem=   104857600 cpu:               0.0 elap:               0.0
 (Enter /opt/g16/l106.exe)
 NDeriv=      9 NFrqRd=  0 NDerD0=      0 MskFDP=       0 MskDFD=       0 MskDF0=       0
 Re-enter D2Numr:  atom   3 IXYZ=3 step-down number 1
 Finish atom      3 at Sat Mar 15 18:18:10 2025
 Maximum difference in off-diagonal FC elements:
 I=  5 J=  1 Difference=    6.6403802312D-06
 Max difference between analytic and numerical forces:
 I=  1 Difference=    1.4284110485D-06
 FinFTb:  IFil= 1 IFilD=  777 LTop=  1 LFil=         4 LTop1=  0 IMask=  1
 Leave Link  106 at Sat Mar 15 18:18:10 2025, MaxMem=   104857600 cpu:               0.2 elap:               0.2
 (Enter /opt/g16/l716.exe)
 Dipole        = 0.00000000D+00 0.00000000D+00 0.00000000D+00
 Full mass-weighted force constant matrix:
 Low frequencies ----1198.1181   -1.0411   -0.0146    2.4919    3.4745   11.8605
 Low frequencies ---   33.9326 1973.9359 2665.8559
 ******    1 imaginary frequencies (negative Signs) ****** 
 Diagonal vibrational polarizability:
        0.0000000       0.0000000       0.0000000
 Harmonic frequencies (cm**-1), IR intensities (KM/Mole), Raman scattering
 activities (A**4/AMU), depolarization ratios for plane and unpolarized
 incident light, reduced masses (AMU), force constants (mDyne/A),
 and normal coordinates:
                      1                      2                      3
                      A                      A                      A
 Frequencies --  -1198.1180              1973.9359              2665.8559
 Red. masses --      1.1621                12.0877                 1.0609
 Frc consts  --      0.9829                27.7499                 4.4421
 IR Inten    --      0.0000                 0.0000                 0.0000
  Atom  AN      X      Y      Z        X      Y      Z        X      Y      Z
     1   6     0.09   0.00  -0.00    -0.45   0.57  -0.00    -0.06  -0.03  -0.00
     2   7    -0.04  -0.06  -0.00     0.40  -0.50  -0.00    -0.01  -0.01  -0.00
     3   1    -0.52   0.85  -0.00    -0.24   0.10  -0.00     0.83   0.56  -0.00

 -------------------
 - Thermochemistry -
 -------------------
 Temperature   298.150 Kelvin.  Pressure   1.00000 Atm.
 Atom     1 has atomic number  6 and mass  12.00000
 Atom     2 has atomic number  7 and mass  14.00307
 Atom     3 has atomic number  1 and mass   1.00783
 Molecular mass:    27.01090 amu.
 Principal axes and moments of inertia in atomic units:
                           1         2         3
     Eigenvalues --     4.43223  34.10130  38.53353
           X           -0.61793   0.78623   0.00000
           Y            0.78623   0.61793   0.00000
           Z           -0.00000   0.00000   1.00000
 This molecule is an asymmetric top.
 Rotational symmetry number  1.
 Rotational temperatures (Kelvin)     19.54184     2.53990     2.24775
 Rotational constants (GHZ):         407.18595    52.92294    46.83561
    1 imaginary frequencies ignored.
 Zero-point vibrational energy      27752.1 (Joules/Mol)
                                    6.63292 (Kcal/Mol)
 Vibrational temperatures:   2840.05  3835.57
          (Kelvin)
 
 Zero-point correction=                           0.010570 (Hartree/Particle)
 Thermal correction to Energy=                    0.013403
 Thermal correction to Enthalpy=                  0.014348
 Thermal correction to Gibbs Free Energy=        -0.010471
 Sum of electronic and zero-point Energies=            -93.103449
 Sum of electronic and thermal Energies=               -93.100616
 Sum of electronic and thermal Enthalpies=             -93.099672
 Sum of electronic and thermal Free Energies=          -93.124491
 
                     E (Thermal)             CV                S
                      KCal/Mol        Cal/Mol-Kelvin    Cal/Mol-Kelvin
 Total                    8.411              5.976             52.235
 Electronic               0.000              0.000              0.000
 Translational            0.889              2.981             35.816
 Rotational               0.889              2.981             16.417
 Vibrational              6.633              0.014              0.002
                       Q            Log10(Q)             Ln(Q)
 Total Bot       0.655082D+05          4.816296         11.089931
 Total V=0       0.476713D+10          9.678257         22.285010
 Vib (Bot)       0.137427D-04         -4.861928        -11.195004
 Vib (V=0)       0.100008D+01          0.000033          0.000076
 Electronic      0.100000D+01          0.000000          0.000000
 Translational   0.551776D+07          6.741762         15.523482
 Rotational      0.863896D+03          2.936462          6.761453
 
                                                         Title Card Required
                                                             IR Spectrum
 
     2                                1                                                                                              
     6                                9                                                                                              
     6                                7                                                                                              
     6                                4                                                                                              
 
                                                                                                                                     
                                                                                                                                     
                                                                                                                                     
                                                                                                                                     
                                                                                                                                     
                                                                                                                                     
                                                                                                                                     
                                                                                                                                     
                                                                                                                                     
                                                                                                                                     
                                                                                                                                     
                                                                                                                                     
                                                                                                                                     
                                                                                                                                     
                                                                                                                                     
                                                                                                                                     
                                                                                                                                     
                                                                                                                                     
                                                                                                                                     
                                                                                                                                     
 
 -------------------------------------------------------------------
 Center     Atomic                   Forces (Hartrees/Bohr)
 Number     Number              X              Y              Z
 -------------------------------------------------------------------
      1        6          -0.000070221   -0.000034214   -0.000000000
      2        7          -0.000006925   -0.000011863   -0.000000000
      3        1           0.000077146    0.000046077   -0.000000000
 -------------------------------------------------------------------
 Cartesian Forces:  Max     0.000077146 RMS     0.000039951
 Force constants in Cartesian coordinates: 
                1             2             3             4             5 
      1  0.433031D+00
      2 -0.382530D+00  0.606950D+00
      3  0.000000D+00  0.000000D+00  0.329330D-04
      4 -0.324389D+00  0.482719D+00  0.000000D+00  0.378924D+00
      5  0.532686D+00 -0.558305D+00  0.000000D+00 -0.493148D+00  0.556718D+00
      6  0.000000D+00  0.000000D+00  0.219823D-05  0.000000D+00  0.000000D+00
      7 -0.108640D+00 -0.100187D+00  0.000000D+00 -0.545328D-01 -0.395377D-01
      8 -0.150154D+00 -0.486453D-01  0.000000D+00  0.104291D-01  0.158637D-02
      9  0.000000D+00  0.000000D+00 -0.351726D-04  0.000000D+00  0.000000D+00
                6             7             8             9 
      6  0.395682D-05
      7  0.000000D+00  0.163173D+00
      8  0.000000D+00  0.139725D+00  0.470586D-01
      9 -0.613283D-05  0.000000D+00  0.000000D+00  0.413245D-04
 Leave Link  716 at Sat Mar 15 18:18:11 2025, MaxMem=   104857600 cpu:               0.0 elap:               0.0
 (Enter /opt/g16/l103.exe)

 GradGradGradGradGradGradGradGradGradGradGradGradGradGradGradGradGradGrad
 Berny optimization.
 Search for a local minimum.
 Step number   1 out of a maximum of    2
 All quantities printed in internal units (Hartrees-Bohrs-Radians)
 Second derivative matrix not updated -- analytic derivatives used.
 The second derivative matrix:
                          X1        Y1        Z1        X2        Y2
           X1           0.43303
           Y1          -0.38253   0.60695
           Z1          -0.00000   0.00000   0.00003
           X2          -0.32439   0.48272   0.00000   0.37892
           Y2           0.53269  -0.55830   0.00000  -0.49315   0.55672
           Z2           0.00000   0.00000   0.00000  -0.00000   0.00000
           X3          -0.10864  -0.10019   0.00000  -0.05453  -0.03954
           Y3          -0.15015  -0.04865  -0.00000   0.01043   0.00159
           Z3           0.00000   0.00000  -0.00004  -0.00000   0.00000
                          Z2        X3        Y3        Z3
           Z2           0.00000
           X3           0.00000   0.16317
           Y3           0.00000   0.13972   0.04706
           Z3          -0.00001   0.00000   0.00000   0.00004
 ITU=  0
     Eigenvalues ---   -0.11654   0.37346   1.90024
 Eigenvalue     1 is  -1.17D-01 should be greater than     0.000000 Eigenvector:
                          Y3        X3        X1        Y2        X2
   1                    0.78081  -0.39376   0.32832  -0.32043  -0.15514
                          Y1        Z1        Z3        Z2
   1                    0.02735  -0.00000  -0.00000  -0.00000
 Angle between quadratic step and forces=  25.95 degrees.
 Linear search not attempted -- first point.
 B after Tr=    -0.000033   -0.000021    0.000000
         Rot=    1.000000    0.000000    0.000000    0.000014 Ang=   0.00 deg.
 Variable       Old X    -DE/DX   Delta X   Delta X   Delta X     New X
                                 (Linear)    (Quad)   (Total)
    X1        0.80805  -0.00007   0.00000  -0.00012  -0.00018   0.80787
    Y1       -1.12462  -0.00003   0.00000  -0.00005  -0.00010  -1.12472
    Z1        0.00000  -0.00000   0.00000   0.00000   0.00000   0.00000
    X2       -0.67061  -0.00001   0.00000   0.00000  -0.00001  -0.67063
    Y2        0.61967  -0.00001   0.00000   0.00003   0.00003   0.61969
    Z2        0.00000  -0.00000   0.00000   0.00000  -0.00000  -0.00000
    X3       -1.28507   0.00008   0.00000   0.00028   0.00019  -1.28487
    Y3       -1.97599   0.00005   0.00000   0.00006   0.00007  -1.97592
    Z3        0.00000  -0.00000   0.00000   0.00000  -0.00000  -0.00000
         Item               Value     Threshold  Converged?
 Maximum Force            0.000077     0.000450     YES
 RMS     Force            0.000040     0.000300     YES
 Maximum Displacement     0.000194     0.001800     YES
 RMS     Displacement     0.000098     0.001200     YES
 Predicted change in Energy=-1.866637D-08
 Optimization completed.
    -- Stationary point found.
 GradGradGradGradGradGradGradGradGradGradGradGradGradGradGradGradGradGrad

 Leave Link  103 at Sat Mar 15 18:18:11 2025, MaxMem=   104857600 cpu:               0.0 elap:               0.1
 (Enter /opt/g16/l9999.exe)
 1\1\GINC-DESKTOP-1D9QDE1\Freq\RExternal='python3 -u ../../../src/gmm.p
 y'\ZDO\C1H1N1\JH-LI\15-Mar-2025\0\\#p external="python3 -u ../../../sr
 c/gmm.py" freq=num geom=allcheck nosymm\\Title Card Required\\0,1\C,0.
 4276010463,-0.5951248189,0.\N,-0.3548737424,0.3279132171,0.\H,-0.68002
 72139,-1.0456497181,0.\\Version=ES64L-G16RevA.03\HF=-93.1140196\RMSD=0
 .000e+00\RMSF=3.995e-05\ZeroPoint=0.0105702\Thermal=0.0134035\Dipole=0
 .,0.,0.\DipoleDeriv=0.,0.,0.,0.,0.,0.,0.,0.,0.,0.,0.,0.,0.,0.,0.,0.,0.
 ,0.,0.,0.,0.,0.,0.,0.,0.,0.,0.\PG=CS [SG(C1H1N1)]\NImag=1\\0.43303100,
 -0.38253030,0.60695031,0.,0.,0.00003293,-0.32438905,0.48271909,0.,0.37
 892449,0.53268633,-0.55830463,0.,-0.49314766,0.55671831,0.,0.,0.000002
 20,0.,0.,0.00000396,-0.10863999,-0.10018683,0.,-0.05453280,-0.03953768
 ,0.,0.16317348,-0.15015432,-0.04864533,0.,0.01042911,0.00158637,0.,0.1
 3972490,0.04705856,0.,0.,-0.00003517,0.,0.,-0.00000613,0.,0.,0.0000413
 2\\0.00007022,0.00003421,0.,0.00000692,0.00001186,0.,-0.00007715,-0.00
 004608,0.\\\@


 ... THE UNIVERSE IS NOT ONLY QUEERER THAN WE SUPPOSE,
 BUT QUEERER THAN WE CAN SUPPOSE ... 

                                   -- J. B. S. HALDANE
 Job cpu time:       0 days  0 hours  0 minutes  3.9 seconds.
 Elapsed time:       0 days  0 hours  2 minutes 31.9 seconds.
 File lengths (MBytes):  RWF=     43 Int=      0 D2E=      0 Chk=     38 Scr=      1
 Normal termination of Gaussian 16 at Sat Mar 15 18:18:11 2025.
