Generated by MOKIT
SP        RHF                                                         MYBAS
Number of atoms                            I                3
Charge                                     I                0
Multiplicity                               I                1
Number of electrons                        I               14
Number of alpha electrons                  I                7
Number of beta electrons                   I                7
Number of basis functions                  I               33
Number of independent functions            I               33
Atomic numbers                             I   N=           3
           6           7           1
Nuclear charges                            R   N=           3
  6.00000000E+00  7.00000000E+00  1.00000000E+00
Current cartesian coordinates              R   N=           9
  8.08048898E-01 -1.12462300E+00  0.00000000E+00 -6.70614207E-01  6.19666231E-01
  0.00000000E+00 -1.28506528E+00 -1.97599174E+00 -1.88972626E-03
Int Atom Types                             I   N=           3
           0           0           0
Number of contracted shells                I               15
Number of primitive shells                 I               49
Highest angular momentum                   I                2
Largest degree of contraction              I                8
Shell types                                I   N=          15
           0           0           0           1           1          -2
           0           0           0           1           1          -2
           0           0           1
Number of primitives per shell             I   N=          15
           8           8           1           3           1           1
           8           8           1           3           1           1
           3           1           1
Shell to atom map                          I   N=          15
           1           1           1           1           1           1
           2           2           2           2           2           2
           3           3           3
Primitive exponents                        R   N=          49
  6.66500000E+03  1.00000000E+03  2.28000000E+02  6.47100000E+01  2.10600000E+01
  7.49500000E+00  2.79700000E+00  5.21500000E-01  6.66500000E+03  1.00000000E+03
  2.28000000E+02  6.47100000E+01  2.10600000E+01  7.49500000E+00  2.79700000E+00
  5.21500000E-01  1.59600000E-01  9.43900000E+00  2.00200000E+00  5.45600000E-01
  1.51700000E-01  5.50000000E-01  9.04600000E+03  1.35700000E+03  3.09300000E+02
  8.77300000E+01  2.85600000E+01  1.02100000E+01  3.83800000E+00  7.46600000E-01
  9.04600000E+03  1.35700000E+03  3.09300000E+02  8.77300000E+01  2.85600000E+01
  1.02100000E+01  3.83800000E+00  7.46600000E-01  2.24800000E-01  1.35500000E+01
  2.91700000E+00  7.97300000E-01  2.18500000E-01  8.17000000E-01  1.30100000E+01
  1.96200000E+00  4.44600000E-01  1.22000000E-01  7.27000000E-01
Contraction coefficients                   R   N=          49
  6.91583963E-04  5.32579615E-03  2.70607210E-02  1.01656846E-01  2.74574824E-01
  4.48294319E-01  2.84902611E-01  1.51948592E-02 -2.93269653E-04 -2.31803547E-03
 -1.14997860E-02 -4.68267270E-02 -1.28466169E-01 -3.01266272E-01 -2.55630702E-01
  1.09379336E+00  1.00000000E+00  5.69792516E-02  3.13207212E-01  7.60376742E-01
  1.00000000E+00  1.00000000E+00  6.99617413E-04  5.38605463E-03  2.73910212E-02
  1.03150592E-01  2.78570663E-01  4.48294849E-01  2.78085928E-01  1.54315612E-02
 -3.04990096E-04 -2.40802638E-03 -1.19444487E-02 -4.89259929E-02 -1.34472725E-01
 -3.15112578E-01 -2.42857833E-01  1.09438221E+00  1.00000000E+00  5.89056768E-02
  3.20461107E-01  7.53042062E-01  1.00000000E+00  1.00000000E+00  3.34987264E-02
  2.34800801E-01  8.13682958E-01  1.00000000E+00  1.00000000E+00
Coordinates of each shell                  R   N=          45
  8.08048898E-01 -1.12462300E+00  0.00000000E+00  8.08048898E-01 -1.12462300E+00
  0.00000000E+00  8.08048898E-01 -1.12462300E+00  0.00000000E+00  8.08048898E-01
 -1.12462300E+00  0.00000000E+00  8.08048898E-01 -1.12462300E+00  0.00000000E+00
  8.08048898E-01 -1.12462300E+00  0.00000000E+00 -6.70614207E-01  6.19666231E-01
  0.00000000E+00 -6.70614207E-01  6.19666231E-01  0.00000000E+00 -6.70614207E-01
  6.19666231E-01  0.00000000E+00 -6.70614207E-01  6.19666231E-01  0.00000000E+00
 -6.70614207E-01  6.19666231E-01  0.00000000E+00 -6.70614207E-01  6.19666231E-01
  0.00000000E+00 -1.28506528E+00 -1.97599174E+00 -1.88972626E-03 -1.28506528E+00
 -1.97599174E+00 -1.88972626E-03 -1.28506528E+00 -1.97599174E+00 -1.88972626E-03
Num ILSW                                   I              100
ILSW                                       I   N=         100
           0           0           0           0           2           0
           0           0           0           0           0          -1
           5           0           0           0           0           0
           0           0           0           0           0           0
           1           1           0           0           0           0
           0           0      100000           0          -1           0
           0           0           0           0           0           0
           0           0           0           1           0           0
           0 -2000000000           1           0           0           0
           0           0           4          52           0           0
           0           0           0           0           0           0
           0           0           0           3           0           1
           0           0           0           0           0           0
           0           0           0           0           0           0
           0           0           0           0           0           0
           0           0           0           0           0           0
           0           0           0           0
Virial Ratio                               R      0.000000000000000E+00
Total Energy                               R      0.000000000000000E+00
Alpha Orbital Energies                     R   N=          33
 -1.56627581E+01 -1.13067684E+01 -1.29421356E+00 -7.04328221E-01 -6.15223613E-01
 -5.21237980E-01 -4.91339128E-01  1.11057397E-01  1.69180807E-01  1.86219565E-01
  3.95096431E-01  5.92961241E-01  6.88988648E-01  7.01781666E-01  8.42924117E-01
  8.91136356E-01  1.00516163E+00  1.00896172E+00  1.03858756E+00  1.14735972E+00
  1.38111151E+00  1.49411831E+00  1.52141013E+00  1.73071577E+00  1.80078104E+00
  1.90514100E+00  2.12573340E+00  2.16769551E+00  2.43418760E+00  2.53234655E+00
  2.63978964E+00  2.79275973E+00  3.04221115E+00
Alpha MO coefficients                      R   N=        1089
 -1.67106286E-05 -3.35238495E-04  2.87234924E-03  2.94664364E-04 -3.83102502E-04
 -2.02061760E-08 -9.60135804E-04  1.23836096E-03  6.01817451E-08  3.25891871E-04
 -3.23214681E-08  2.59556491E-08  4.53311893E-05  5.55593387E-04  1.00132224E+00
  1.78665230E-03 -6.26286958E-03  1.16661327E-03 -1.81501582E-03 -2.49744563E-07
 -1.09669681E-03  1.61263345E-03  1.81504663E-07 -1.64096050E-04 -3.00979003E-07
 -3.00532649E-07 -8.65861643E-05 -7.61997668E-04  1.85833461E-04  1.73522747E-04
 -1.56463840E-04  1.54328296E-04 -1.72113999E-08  1.00140534E+00  2.64880904E-03
 -2.64764908E-03 -2.88357713E-03  1.37750062E-03 -1.15192627E-06  3.17561315E-04
  4.01486414E-04  4.41683689E-07 -1.00153394E-03  8.61263485E-07  2.46141600E-07
  2.81608604E-04 -8.65177783E-04 -7.83663658E-04 -1.20784520E-04 -1.36310810E-03
 -1.27245665E-04  1.08320273E-04 -2.37795727E-08 -6.68732360E-04  1.05442251E-03
  1.51132794E-07  1.26665178E-04  5.27357619E-08 -4.30849709E-08  1.13281108E-04
  2.17834253E-04 -6.03080566E-04  1.06124229E-03 -8.02465487E-04 -3.98283062E-04
 -7.65398919E-07 -1.79559349E-02  2.55636360E-01  1.08029882E-01 -1.49666808E-01
  1.39839762E-01 -2.08938244E-05 -9.75155003E-03  6.16521949E-03 -3.03796685E-06
 -1.82947245E-02  4.97405197E-06 -1.61719889E-06  3.11324952E-04 -2.90069099E-02
 -1.05574654E-02  3.63436612E-01  2.87020681E-01  1.02516349E-01 -1.46244439E-01
 -1.44054010E-05  2.06700770E-02 -3.71235060E-02 -7.25062595E-06 -1.12925183E-02
 -8.61356788E-07  2.96850842E-06 -6.12985059E-03 -1.73553221E-02  1.27288371E-01
 -6.95704880E-03  1.39572729E-02  1.63993937E-02  1.87032276E-05  4.72130724E-04
 -2.46459502E-01 -2.21442311E-01  8.61152278E-02  1.55873002E-01  1.46522104E-04
  1.71110954E-02  9.50490843E-02  6.55809281E-05  3.63481558E-03 -2.71984387E-05
 -2.42693739E-06 -2.07592463E-02 -1.58760197E-02  1.45044880E-04  2.95424168E-01
  4.21549739E-01 -8.50707300E-02  2.80090529E-01  1.02290709E-04 -6.03461038E-02
  1.49552210E-01  4.45986988E-05  8.07227773E-03  3.92428528E-06 -1.22449064E-05
  1.46869241E-02  6.06343814E-03 -2.46425602E-01 -4.11529300E-02 -2.28480440E-02
 -9.93772525E-03 -2.09946020E-05  1.95080515E-03  1.38226774E-01  1.06894297E-01
  1.16450863E-01  2.92091265E-01  2.44411098E-04  7.28449457E-02  7.86413675E-02
  9.36597941E-05 -3.82253995E-04 -3.48211173E-05  8.65333846E-06 -3.66459631E-02
 -1.87370949E-02  4.17906884E-04 -7.71514105E-02 -1.65402060E-01  4.22172461E-01
 -7.81677305E-02  2.38937527E-04  2.44793400E-01 -3.29834448E-02  1.45569739E-04
 -5.83701897E-03  4.39218258E-06 -2.62803626E-05  2.14603074E-02 -2.95239579E-02
 -2.72237429E-01 -1.31757069E-01 -7.30969850E-03 -1.98978852E-02 -1.62314373E-05
  4.20433274E-17 -4.04399977E-16 -5.43200127E-16 -2.18619709E-04 -1.85327577E-04
  3.25644052E-01 -1.27091437E-04 -1.07737533E-04  1.89308507E-01 -1.40340652E-05
 -4.32478154E-02  3.67795921E-02  4.99658990E-05 -7.90091285E-08 -2.02463427E-16
 -5.43598316E-17  7.16485776E-16 -3.27952266E-04 -2.78010611E-04  4.88499896E-01
 -2.26194982E-04 -1.91749263E-04  3.36927769E-01 -7.94674520E-06  2.03751177E-02
 -3.20970803E-02 -3.19455434E-05  9.95253639E-06  6.96927984E-16 -2.78612817E-16
 -1.41692980E-05 -1.20115505E-05  2.11058173E-02 -1.03299580E-02  2.14827500E-01
  5.11642870E-01  3.62891864E-01 -2.60407599E-01  9.54250625E-05  1.70392321E-01
 -9.05600531E-02  6.28534259E-05  1.56938234E-02 -1.71093417E-05  1.71803159E-05
 -2.30012185E-02  2.91354094E-02 -5.60854605E-04  1.66503836E-03  4.94102800E-02
 -8.91844577E-02  3.20961013E-01  1.22788813E-04 -4.48197959E-02  2.21366131E-01
  9.58923025E-05  1.11026786E-02  3.89572794E-06 -1.46565008E-05  1.72933731E-02
  9.13029202E-03 -3.54263020E-02  5.48574177E-02  1.07854946E-02 -1.69302935E-02
 -2.39441986E-06  1.55605530E-02 -7.42876293E-02 -4.42893036E-01 -1.54669166E-01
 -3.16870399E-02 -1.21869907E-04 -1.94592741E-01  7.41060768E-03 -1.26421527E-04
 -8.05362817E-03  7.12169480E-06  3.72003027E-05 -2.34433048E-02  2.37132002E-02
  1.22275044E-02 -2.49169684E-02 -2.65105288E-01  3.27139560E-01  3.03611008E-01
  3.92412042E-04  4.75522929E-01  4.57398443E-01  5.79550671E-04  2.29743990E-03
  6.69243775E-06 -5.78801083E-06  1.07044749E-02  3.82615862E-03  2.49371265E-01
  8.19657047E-01  1.93742756E-02 -1.81421293E-02  2.68195170E-06 -1.36026715E-16
 -6.25604120E-16  9.65916589E-16 -2.73264023E-04 -2.31650475E-04  4.07039257E-01
 -5.25902462E-04 -4.45816298E-04  7.83355764E-01 -2.28798358E-05 -6.47357303E-03
 -1.55745819E-02 -4.51765762E-06  1.41401184E-05  1.36229970E-16  1.82354452E-16
 -1.83439016E-15  2.48207099E-04  2.10409302E-04 -3.69715824E-01  4.00379646E-04
  3.39408511E-04 -5.96383791E-01  4.48823571E-06  8.36365600E-03 -5.31288679E-03
 -8.63852590E-06 -1.19306642E-06  9.38484160E-16  6.10084530E-16 -9.55143731E-06
 -8.09691288E-06  1.42273026E-02  3.51602344E-02 -2.70192342E-02 -9.94262877E-01
  2.55500180E-01  2.66622937E-01  3.23266944E-04  8.47592611E-01  5.98660500E-01
  9.09731799E-04  2.01335368E-02 -4.38962436E-05 -1.38315046E-05 -2.21735516E-02
 -9.83767854E-03  3.25291145E-04 -6.58737171E-02 -1.54477457E-01 -7.89264123E-02
 -1.10468911E-01 -1.15855962E-04 -1.07425914E-01 -2.07032085E-01 -1.89944132E-04
 -1.23086778E-03  1.79758405E-05  5.78274230E-07  1.48058976E-02  1.16052931E-02
  4.53315799E-02  1.67188868E+00 -1.00488052E-03  2.27164011E-02  1.22535291E-05
 -7.00315434E-02 -2.27377735E-02  2.72617444E+00 -1.07413905E-02 -3.87545332E-02
 -2.92668124E-05 -1.41591783E+00  1.65705555E+00 -7.52187550E-06 -5.18534428E-02
  5.61854354E-05  2.17056190E-05  1.80444378E-02 -2.85077672E-02  4.89006161E-02
 -9.42067329E-02 -2.41715811E+00 -1.00645724E-01  1.01495640E-01 -9.80579168E-06
 -7.91174244E-01  7.35753680E-01 -1.12425932E-04  2.10675129E-02  3.87794432E-06
  1.27441172E-05 -2.81395928E-05  4.98922671E-02  2.90604822E-01 -9.89868561E-01
 -1.20908488E-02  5.08209834E-03 -5.22486086E-06 -3.06424794E-02 -1.92814181E-01
 -1.37093831E+00 -1.50021561E-01 -1.09199799E-01 -1.62863113E-04  1.43699532E+00
 -4.02829088E-01  7.35466094E-04 -7.31901827E-02  2.17392664E-04  1.30295110E-04
  7.19303015E-02  1.47592559E-01 -5.51593959E-02 -4.38805339E-02  1.60853608E+00
  2.59174654E-03  1.51901230E-01  8.81886023E-05  4.29790445E-01 -6.21238509E-01
 -6.50156686E-05 -6.38398502E-02  5.59341621E-05  1.06650025E-04 -4.79830266E-02
  2.44486825E-02  1.01673012E+00 -3.66924045E-01 -5.72669317E-02 -3.13773876E-02
 -5.63031169E-05  1.62503525E-15  3.94249114E-15 -1.04259452E-14  6.72008345E-04
  5.69672694E-04 -1.00098716E+00 -6.74838931E-04 -5.72072229E-04  1.00520345E+00
  5.97739389E-06  3.81352805E-02 -3.89219510E-02 -4.77528602E-05  4.42687527E-06
  2.70490390E-17  1.13265895E-15  6.93116788E-15  7.38254463E-05  6.25830634E-05
 -1.09966378E-01 -3.82580085E-05 -3.24319526E-05  5.69870530E-02  2.92923324E-06
 -5.44943780E-02  6.72553537E-02  7.48603161E-05 -1.41382444E-05  1.36375860E-15
 -2.68243846E-15  2.51006385E-05  2.12782303E-05 -3.73885487E-02 -7.15545782E-02
 -2.33997074E-01  5.08793428E-01 -8.32030358E-01 -2.55161018E-01 -7.03794852E-04
  7.32397834E-01  6.68919745E-01  8.72381591E-04  7.09430830E-02 -1.84356384E-04
 -1.25022496E-04 -4.78086126E-02 -1.22589813E-01  1.06385434E-02 -5.73861907E-02
 -6.85980475E-01  1.39683362E-02 -2.32321949E-01 -1.22839370E-04 -3.34878274E-01
  5.75072388E-01  1.02460897E-04  3.03924210E-02 -7.17391261E-05  6.42758200E-06
 -5.82808765E-02  4.79338170E-03 -2.93684898E-01  8.69776546E-01  1.87736926E-01
  1.08878107E-01  1.88000080E-04  1.42612618E-01  3.20383990E-01  1.19745702E+00
 -2.04896489E-01  8.57345404E-01  3.50368247E-04 -2.81770973E-01 -3.82872160E-01
 -4.07062426E-04 -3.26774101E-02  1.11330883E-04  7.25846184E-05  3.38953094E-02
  8.88717675E-02 -2.01179515E-02 -2.19473764E-01 -6.01046862E-01  1.41561912E-01
 -1.35532890E-01  1.79037260E-05 -9.02770843E-01  1.05518355E+00 -5.55479901E-06
 -6.51146870E-02  3.75733636E-05  3.57922940E-06  1.14705270E-02 -8.05519789E-02
  3.29392783E-01 -6.34664794E-01 -3.43258933E-02 -4.64057957E-03 -2.56855425E-05
 -6.77606338E-01 -1.52333147E+00  2.58425058E+00  1.28869171E-02  3.92492656E-01
  2.32023421E-04 -9.88286991E-01 -3.95314835E-01 -8.88460122E-04  9.16403358E-02
 -1.43108837E-05 -1.04993664E-04  9.07248205E-02  5.50705807E-02 -3.74440267E-02
 -8.18806848E-02 -4.41610264E-01 -3.18774501E-01 -5.44414096E-02 -2.44991065E-04
  3.22598210E-01  8.56425521E-02  2.65315005E-04  5.01433805E-02 -3.11068664E-05
 -5.48348214E-05  2.75472381E-02  1.52982674E-02 -1.53827429E-01 -1.15181300E+00
 -1.42218135E-01 -3.57191095E-02 -1.15805656E-04 -8.40348604E-03 -1.33622944E-01
  6.28368100E-01  4.08926576E-01 -2.13317128E-01  1.53129965E-04 -6.06218848E-01
  1.02725727E-02 -4.01136136E-04 -2.50100210E-01  2.30844291E-04  1.21308814E-05
  1.20239748E-01 -2.47220627E-01 -6.26359036E-02 -1.18924391E-01 -3.02562402E-01
  4.28724109E-02 -7.84237003E-01 -4.17535615E-04  1.70391695E-01  1.02982716E+00
  7.00477570E-04  3.34662635E-02  4.51769309E-05  7.12414479E-05 -3.69734451E-03
  1.52121159E-01  2.58910260E-01 -2.54067546E-01 -1.22481743E-01  1.33664712E-01
 -6.15753846E-06  7.69932620E-15  1.20810536E-14 -2.59910555E-15 -1.48168802E-04
 -1.25605168E-04  2.20704206E-01  4.63043102E-04  3.92529369E-04 -6.89723873E-01
 -7.91560019E-05  8.95105984E-02 -1.85892158E-01 -1.65885794E-04  7.38564648E-05
 -6.23519174E-16 -7.10333255E-16 -1.20947472E-14  6.37030532E-04  5.40021418E-04
 -9.48886106E-01 -8.97032001E-04 -7.60429004E-04  1.33617018E+00 -2.63137086E-05
 -2.08673135E-02 -2.07874329E-03  1.28261460E-05  1.32713822E-05  1.44928769E-14
  3.27270823E-15 -5.48880826E-05 -4.65295440E-05  8.17583088E-02 -2.91796580E-01
 -7.15552496E-01  1.71744454E+00  6.68227240E-02 -1.58738626E-01 -4.54787376E-05
 -3.25241791E-01  3.62040226E-01 -1.23086165E-05 -5.37679900E-02 -1.55758409E-04
  5.85610967E-05 -1.93270575E-01 -1.55556117E-01 -1.06764681E-01 -2.18100224E-01
 -2.94624912E-01  8.61970490E-01  1.72602523E-01  6.76910090E-04 -1.16526136E+00
 -3.32076855E-01 -9.71281664E-04  7.48007244E-02 -1.46386047E-05 -3.62576030E-05
  3.51635022E-02  8.56303913E-02  4.21859216E-02 -9.19401515E-01 -1.02643425E-01
 -5.98173994E-02 -1.02951947E-04 -4.56415233E-17 -1.19968083E-16  7.50872907E-15
 -7.95766553E-05 -6.74584593E-05  1.18533067E-01 -5.43715971E-07 -4.60917103E-07
  8.09889795E-04  9.46806768E-04  5.36988065E-01  3.27061273E-01 -1.74370522E-04
 -5.25177328E-04  5.61228378E-16  1.12817818E-15 -3.43013731E-15  4.69708995E-05
  3.98180157E-05 -6.99653025E-02 -1.24250973E-04 -1.05329624E-04  1.85077505E-01
  2.87986553E-04  1.25017675E-01  1.44679917E-01 -1.59117320E-06 -1.68279276E-04
 -3.77325123E-16 -5.27143535E-15  3.49501559E-04  2.96278307E-04 -5.20598553E-01
  1.09558304E-01  2.74908100E-01 -1.12948502E+00  2.81083460E-02  3.18735348E-02
  3.70099908E-05  3.17158670E-01 -5.48655954E-01 -9.93229948E-05  4.94878122E-01
 -3.52662113E-04 -9.34234272E-04  5.21083473E-01 -2.23229054E-01 -1.80605592E-01
 -4.40822717E-01  1.17305234E+00  1.46576012E-01  2.65163419E-01  2.49310554E-04
  4.63406923E-01 -1.33039682E-01  2.35391876E-04  1.45683990E-02 -1.28023853E-04
  8.45909360E-05 -1.68979059E-01  4.14634022E-03  5.08809707E-02  2.28373584E-01
 -1.88944212E-01  3.62779625E-01  7.96149663E-05  2.25110864E-16  5.11477391E-16
 -1.31514392E-14  1.09475289E-04  9.28040306E-05 -1.63068449E-01 -1.27100253E-04
 -1.07745007E-04  1.89321639E-01  3.83001804E-04 -3.76985823E-01  8.33253786E-01
  7.27301559E-04 -3.44854711E-04 -2.71314615E-15 -5.65632452E-15  1.76020776E-14
  2.37751867E-04  2.01546227E-04 -3.54142277E-01  9.39050634E-05  7.96048901E-05
 -1.39875886E-01  6.28447938E-05  1.83765694E-01 -1.53022661E-01 -2.10457162E-04
 -1.85199193E-06  1.92149030E-16  1.44451785E-15 -7.52372018E-05 -6.37798321E-05
  1.12069252E-01  6.69303394E-02  1.90146034E-01 -3.04145117E+00  7.32374613E-02
 -1.62988075E-01 -4.35906400E-05  1.16200128E+00 -1.27784253E+00  5.28703701E-05
  6.31523584E-02 -1.19344463E-06  4.32626562E-04 -3.00986806E-01  4.81991172E-01
 -6.98654911E-01 -1.54657641E+00  4.24849868E+00 -1.02980590E-01 -8.05050619E-02
 -1.14951876E-04  9.74491300E-01 -1.07229471E+00  4.39658668E-05 -5.27672552E-02
  1.81141494E-04  6.01339371E-05  9.78515879E-02  9.50449935E-02 -1.45753586E-01
  2.63606336E-01 -1.04627691E-02  2.25920235E-01  1.21549532E-04  2.10518539E-01
  4.24149636E-01 -2.36370985E+00 -4.00455266E-02 -2.67793419E-01 -1.79288541E-04
  1.15694951E+00 -4.77083371E-01  5.05199647E-04  5.68783552E-01 -7.79768515E-04
 -6.12586222E-04 -6.44578707E-02 -1.31978177E-01 -2.84349551E-01 -5.49632380E-01
  2.44892525E+00 -7.66263585E-02 -3.01119998E-01 -2.22813441E-04  5.11317703E-01
 -5.49660088E-01  3.04533580E-05  3.02102875E-01 -4.25358453E-04 -4.88453409E-04
  7.58851306E-02 -2.19669973E-01  5.77872245E-01  1.63657057E-01 -6.31068254E-02
 -6.52329655E-01 -4.13614403E-04 -9.89650295E-02 -2.35097825E-01 -9.23626763E-01
  2.79732708E-01 -1.10041198E-02  1.81534764E-04  1.82634807E-01 -4.39529461E-01
 -1.27529926E-04 -2.38450258E-01  8.77555243E-04  6.62035712E-05  6.44324736E-01
  2.94703806E-01 -2.31358438E-01 -4.53137902E-01  1.56326716E+00  2.78931691E-01
  1.42238031E-02  1.95354491E-04  2.45071688E-01 -5.54420541E-01 -1.50998964E-04
  3.46354904E-01 -5.10713557E-04 -3.41894563E-04 -9.32243100E-02 -7.97460493E-02
 -4.64108758E-01  1.61960746E-01  5.01992622E-01 -3.44700002E-01  1.40838023E-04
 -9.04766713E-17 -2.26530461E-16 -1.04660010E-15  2.28056281E-05  1.93327117E-05
 -3.39700259E-02  1.50572592E-04  1.27642901E-04 -2.24284761E-01  1.27519520E-03
  8.18150977E-01  3.28532885E-01 -3.62290526E-04 -6.86178308E-04 -1.57617076E-16
 -2.68406512E-16  1.45774244E-15 -8.94682065E-05 -7.58436924E-05  1.33266984E-01
  2.79753488E-05  2.37151703E-05 -4.16705613E-02 -1.79621009E-04 -1.24075958E-01
 -3.58564675E-02  6.28915581E-05  9.46851409E-05 -3.67623810E-16  2.63865909E-16
 -6.37678385E-04 -5.40570614E-04  9.49851113E-01 -1.01000209E-17 -3.90543208E-18
 -5.68604466E-17  7.80651780E-06  6.61771548E-06 -1.16281652E-02  4.20468203E-05
  3.56437916E-05 -6.26306615E-02 -2.70687122E-04 -1.03090656E-01 -1.52996020E-01
 -1.78622214E-05  1.61383343E-04 -1.17874505E-16 -2.57471983E-16  1.43525115E-16
 -2.26218382E-05 -1.91769100E-05  3.36962624E-02  1.22526944E-05  1.03868136E-05
 -1.82509485E-02  1.51025819E-03  7.37527115E-01  6.62105934E-01 -1.18324011E-04
 -8.64237300E-04  2.64587828E-17  1.04354808E-17 -1.91740948E-04 -1.62542003E-04
  2.85606909E-01 -9.80230296E-02 -2.30809933E-02  1.04949711E+00 -4.22542520E-01
  1.61187114E-01 -1.91938729E-04 -5.90381007E-01  2.22276745E-01 -2.69849587E-04
 -8.85905781E-01  7.23870068E-04  5.29184128E-04 -1.26401666E-02 -5.23237162E-01
 -3.79229947E-01 -8.21766019E-01 -2.69631177E-01 -4.46886684E-01  5.53324171E-01
  1.48873939E-05  1.14246910E-01 -1.47367094E-01 -7.16905522E-06  3.59587197E-01
 -6.57166502E-04 -4.98636911E-04 -1.01241698E-01 -3.00588436E-01 -3.71240167E-01
 -3.71393499E-01 -4.67605317E-01 -3.15313569E-02 -3.31869621E-04  9.42897448E-02
  1.58201649E-01  2.17133188E-01  1.54618454E-03 -2.35940113E-01 -1.33238064E-04
  5.11606691E-02 -1.54471243E-01 -5.35647757E-05  5.92124715E-02  3.44129351E-04
  7.77677296E-04 -2.56326727E-01  1.02803386E+00  4.06287029E-01  8.36792928E-01
 -4.81664494E-01  2.69649935E-01 -4.36487732E-01 -6.73816196E-05 -2.40996019E-01
  2.58956108E-01 -1.44168809E-05  4.25230473E-01 -9.81694854E-04 -2.74344467E-04
 -5.28691281E-01 -2.32467396E-01 -2.31880729E-01 -7.96237015E-02 -6.77045264E-01
  3.14510721E-01 -2.75539896E-04  2.00142510E-02 -1.02220912E-01 -6.63269777E-01
  6.64481944E-01  4.78001788E-01  7.18133067E-04  5.83465386E-01  5.26050874E-01
  6.91088214E-04  3.58445388E-01 -1.44605707E-03 -2.16110803E-04 -9.92882121E-01
 -6.37287546E-01  8.12294927E-02  1.28919540E-01 -7.65315561E-01 -1.97076042E-01
  6.03610857E-02 -9.79539867E-05 -2.50347383E-01  2.12441864E-01 -4.71666404E-05
  3.53566202E-01 -7.14925419E-04 -2.12158266E-04 -3.63491798E-01 -1.05019845E-01
  1.25191573E+00  7.33678525E-01  1.15758901E+00  6.82450899E-01  1.16553255E-03
  7.02020907E-17  2.78924911E-16  1.37940501E-15 -2.24217889E-04 -1.90073248E-04
  3.33982798E-01 -2.22868950E-04 -1.88929730E-04  3.31973491E-01 -4.29471068E-06
 -5.72571169E-01  6.71070616E-01  7.66306744E-04 -1.24663829E-04  3.43727575E-16
  7.60486856E-16 -9.97926313E-17  6.84987163E-05  5.80675055E-05 -1.02031970E-01
  3.49213323E-04  2.96033965E-04 -5.20169213E-01 -2.37386875E-05 -7.78270236E-01
  8.93995873E-01  1.03127111E-03 -1.57258136E-04 -1.69744400E-15 -9.32831515E-16
  1.52555147E-05  1.29323545E-05 -2.27237867E-02 -2.01946348E-03  6.36093079E-02
 -3.54161084E-01  3.10190064E-02  2.01328710E-01  1.35402836E-04  3.11666352E-01
  8.77626099E-02  2.59182498E-04 -9.04842927E-02 -2.96650508E-04  2.47054815E-04
 -4.64285500E-01 -1.58440113E-01 -3.07360801E-01 -5.96236074E-01  1.05720496E+00
 -1.52849309E-01  9.63696050E-02 -4.77697223E-05 -2.34961880E-01 -8.15262061E-01
 -6.21715148E-04 -3.38810184E-01 -6.93261571E-06  1.22165463E-03 -9.99664783E-01
  4.74806257E-01 -2.57794821E-01 -2.10986031E-01  2.33618209E-02 -7.82981615E-01
 -4.29919509E-04 -5.61017529E-01 -1.17140742E+00 -1.85889060E+00  7.91842836E-01
 -9.25893884E-01  4.66392611E-06  6.00527931E-01 -6.80303991E-01  1.59933856E-05
  2.31950052E-01  4.36845285E-05  1.00674542E-05  9.62401285E-02  4.37149835E-01
 -3.02054914E-01 -5.09111846E-01  3.13473886E+00  2.82925850E-01 -3.20096080E-01
  7.77086522E-06  1.03310583E+00 -1.32573658E+00 -6.09200540E-05 -7.50746844E-01
  6.60800253E-05  1.37475246E-04 -2.56626999E-01 -1.11508430E+00 -1.75987090E-01
  9.76318286E-02  6.72851960E-02 -9.82544004E-02 -1.07460278E-05
Total SCF Density                          R   N=         561
  2.00649163E+00  9.93398306E-01  3.85362528E-01 -3.75008641E-02  6.69387488E-01
  7.75884341E-01 -6.88997755E-03 -1.77331806E-01  1.04336501E-01  4.36266715E-01
  6.35459388E-03  1.01762059E-01 -1.35960809E-01 -1.95409275E-02  6.86057376E-01
 -2.43627502E-06  2.56561094E-05  8.04986929E-05 -2.03325976E-04 -1.73116405E-04
  5.37732331E-01 -1.25636355E-02  2.94757897E-01  6.91883964E-01  5.09389228E-01
 -3.03987101E-01  8.62006524E-05  2.39850022E-01  1.84107506E-02 -1.35154619E-01
 -5.59507953E-01 -1.87557118E-01  9.27745803E-02 -1.43284854E-04 -2.10866512E-01
  5.43298729E-02  1.22508929E-07  1.90208553E-05  5.46372501E-05 -2.76403755E-04
 -2.60243146E-04  5.30333713E-01 -5.36652937E-04 -4.70830653E-04  8.55031220E-01
  3.34890461E-02 -3.15327674E-02 -9.83840715E-01  2.72909700E-01  2.54239524E-01
  3.18766988E-04  8.53365071E-01  5.96223307E-01  9.06906542E-04 -8.64675752E-03
 -7.00298051E-02 -2.27387968E-02  2.72616260E+00 -1.07491868E-02 -3.87570197E-02
 -2.81960830E-02 -1.41591877E+00  1.65705738E+00 -1.63818928E-02 -2.85074452E-02
  3.76245723E-03 -3.06422518E-02 -1.92804036E-01 -1.37091815E+00 -1.50023094E-01
 -1.09218532E-01  2.37912546E-02  1.43699304E+00 -4.02839245E-01  1.46608489E-02
  1.47592101E-01 -3.05097998E-03 -7.04847051E-02  8.65449764E-04 -9.62023463E-03
 -2.21113228E-02 -2.82269935E-02 -1.52426929E-02 -1.00098302E+00 -1.45686669E-02
 -6.11199469E-03  1.00520988E+00 -8.52350324E-04 -3.89218009E-02  8.32818523E-06
  4.27415000E-02 -7.29357228E-02 -2.33668642E-01  5.35373292E-01 -8.09294527E-01
 -2.94345800E-01 -7.10883195E-04  7.39617725E-01  6.57320727E-01  8.70597591E-04
 -1.20712968E-01 -1.24134228E-04  7.09439245E-02  4.89271897E-04 -4.32196989E-02
  1.41402115E-01  3.14113794E-01  1.20038361E+00 -2.01426404E-01  8.54204773E-01
  3.50910506E-04 -2.83613661E-01 -3.80328087E-01 -4.06851646E-04  8.98954057E-02
  7.23957111E-05 -3.26773371E-02  1.84247595E-04  3.55688527E-02  1.98539967E+00
 -6.90956451E-01 -1.50375166E+00  2.51715641E+00 -6.17793286E-02  5.40296354E-01
  2.66013258E-04 -9.95941339E-01 -3.47105737E-01 -8.66162512E-04  4.40329111E-02
 -1.12132614E-04  9.16364484E-02 -6.47550963E-03  6.32505587E-02 -4.15203993E-02
  3.68759173E-01 -2.27088670E-02 -2.19166612E-01  5.18854825E-01  3.92958263E-01
 -1.23984449E-01  1.93249909E-04 -6.04638268E-01  5.89668075E-02 -3.72362601E-04
 -2.52982073E-01  1.88147462E-06 -2.50104350E-01 -7.24424526E-03  9.92764031E-02
 -8.13078722E-02  3.64439713E-01  2.77288303E-01 -5.27074914E-04  1.72737863E-01
  5.88280252E-02 -1.18888971E-02  2.95098934E-01  2.20650748E-01  2.66636786E-02
  6.80412067E-02 -6.89791953E-01 -7.41661309E-03 -1.85884494E-01 -9.89565930E-05
  6.62673095E-02 -2.44279874E-02  6.00103888E-04 -4.11827039E-02 -1.61358377E-01
  4.08500171E-01 -2.92999192E-01 -8.12090684E-01  1.87351167E+00  3.73580028E-01
 -3.25146902E-01 -1.15308472E-04 -2.14810299E-01  3.43050388E-01 -5.42378700E-05
 -1.38036380E-01  6.03781110E-05 -5.37796512E-02 -2.09118106E-02 -1.72050093E-01
 -1.07655848E-01 -1.45786553E-01 -8.48328969E-02  6.61076513E-01  5.90537902E-01
 -1.03826903E-06  6.10258733E-05  1.28313441E-04 -1.26471394E-04 -1.45030665E-04
  4.36687409E-01 -4.42746728E-05 -7.11122258E-05  1.85764335E-01 -5.33946638E-04
  2.84808140E-01  3.68804685E-02  5.37009465E-01 -1.78659162E-04 -1.04295836E-07
  1.35066699E-05  1.10676811E-05 -1.13952461E-04 -1.28816220E-04  4.07299159E-01
  1.09300774E-01  3.63636035E-01 -1.09182486E+00  3.60142963E-02  1.85187816E-01
 -1.77477723E-05  3.35082128E-01 -5.13256429E-01 -1.52785240E-04 -2.26017358E-01
 -9.26696493E-04  4.94864406E-01 -1.37143713E-02  5.10015253E-01 -1.82999915E-01
 -4.99378910E-01  1.04864782E+00  3.75763710E-01  1.58276166E-01  1.21351389E-04
  5.95413379E-01 -1.11594855E-03 -6.70018283E-03  1.45217732E-01  1.89956221E-01
 -9.82250342E-02 -1.63121834E-01  7.63453724E-02 -1.74125945E-02  1.89290531E-01
  9.07298576E-03  8.33256590E-01  3.75327098E-04 -3.90983361E-01  1.22675713E-02
  3.77924623E-03  6.72107043E-02  1.37540472E-01 -1.00149433E-01  2.42086832E-01
 -3.54259351E-01 -5.54868622E-02  1.47756883E-01  6.69295314E-02  1.90201788E-01
 -3.04134324E+00  7.32034946E-02 -1.63065986E-01  2.19393560E-01  1.16197119E+00
 -1.27790121E+00  1.27619501E-01  4.81985203E-01 -2.87101693E-02  8.79364959E-02
  1.55399032E-05 -3.00987722E-01 -6.98654367E-01 -1.54657747E+00  4.24849344E+00
 -1.03104850E-01 -8.06264998E-02  3.29063511E-01  9.74395867E-01 -1.07237719E+00
  2.27084674E-01  2.10933234E-01  4.17554538E-01 -2.35961308E+00 -2.85771362E-02
 -2.77627056E-01 -1.82361341E-04  1.16037963E+00 -4.78617371E-01  5.03620648E-04
 -1.31153719E-01 -6.12423496E-04  5.68783246E-01 -1.20483684E-03 -6.31937617E-02
 -2.84454926E-01 -5.52134093E-01  2.45227840E+00 -8.72243631E-02 -2.85254910E-01
 -2.28663345E-04  5.06023834E-01 -5.41106893E-01  2.64120964E-05 -2.18969841E-01
 -9.89649526E-02 -2.35097311E-01 -9.23623764E-01  2.79728583E-01 -1.10101522E-02
  1.34516106E-02  1.82631747E-01 -4.39533132E-01  7.58683811E-03  2.94703413E-01
 -1.69615575E-03 -2.36951481E-01  8.78926777E-04  6.44324720E-01 -2.31359022E-01
 -4.53136875E-01  1.56326891E+00  2.78920495E-01  1.42167396E-02  2.01018441E-02
  2.45063763E-01 -5.54425683E-01  1.35788893E-02 -7.97462549E-02  4.88396381E-04
 -4.18173507E-09 -6.00910064E-06 -1.45532724E-05  1.70840964E-05  2.05235016E-05
 -5.48744918E-02  1.49431234E-04  1.30788250E-04 -2.36437270E-01 -6.85915087E-04
  3.31309146E-01 -1.08584075E-03  8.18150880E-01 -3.61938338E-04 -6.73549650E-07